7
Lattice="5.2371243272932935 -0.000476963807417296 1.7385677183520911 2.3305534667696617 4.690154050494015 1.7382660238789125 -0.0035663501525542863 -0.0015418219758706123 8.767887337762957" Properties=species:S:1:pos:R:3:forces:R:3 structure_index=0 total_energy=-29.657997131347656 stress="0.033645134419202805 0.00013479830522555858 -0.0005081993294879794 0.00013478445180226117 0.03352831304073334 -0.0003091162070631981 -0.0005078058457002044 -0.00030905246967449784 0.034967172890901566" pbc="T T T"
Tb       3.37369591       2.14178753      10.10883541       0.00972949       0.00605038      -0.02772316
Nd       6.54112911       4.10454233       9.32529964       0.00027891      -0.00005740       0.00024761
Tb       2.14120559       1.37756893       5.06482701      -0.01001472      -0.00554966       0.02809487
Nd       5.46025724       3.43431540       3.82437146       0.01367486       0.00838207      -0.04194193
Nd       0.05804742       0.08667291       2.58191258      -0.01311466      -0.00832151       0.04030536
Tl       4.45799449       2.81351129       6.84307355      -0.00283951      -0.00208474       0.00919937
Tl       1.05689969       0.70597547       8.33061653       0.00228563       0.00158079      -0.00818213
8
Lattice="6.070753439982118 0.000660180413239839 3.145848826216656 2.2203894058071945 5.650257380841669 3.147553870217017 0.004992519533325481 0.0025213092175634137 7.423417801291273" Properties=species:S:1:pos:R:3:forces:R:3 structure_index=1 total_energy=-30.139554977416992 stress="0.003177097998559475 0.0026433938182890415 -0.007424287032335997 0.0026431968435645103 0.0011964357690885663 -0.00492305401712656 -0.007424528710544109 -0.004922983702272177 0.013834343291819096" pbc="T T T"
Tl       0.58013416       0.23239539       7.45819312      -0.00124380      -0.00086733       0.00089550
La       4.72296964       3.05680475       6.89371794       0.00214949       0.00017302      -0.00188756
Cl       4.64215978       4.53201059       9.27861830      -0.03502683       0.00131214      -0.01816815
Cl       4.80471205       1.58108896       4.50876104       0.03496643      -0.00098047       0.01828995
Cl       1.37617076       3.67148792       3.46879249      -0.02486533       0.03303262       0.00228018
Cl       5.40046798       0.74663800       8.33512760       0.01387691       0.03452602       0.01736839
Cl       1.99958548       2.44036388       7.16964844       0.02321702      -0.03200166      -0.00133395
Cl       4.04411313       5.36691321       5.45228081      -0.01307392      -0.03519432      -0.01744435
4
Lattice="3.4251969859018216 -0.000861141189516332 0.0026259679768318492 0.0034757092254482113 3.425613241024289 0.001470517832574091 -0.002584645290258381 -0.001546584886950827 7.621225701564609" Properties=species:S:1:pos:R:3:forces:R:3 structure_index=2 total_energy=-17.227947235107422 stress="-0.039179831743240356 0.018403593450784683 0.01802712492644787 0.01840338110923767 -0.03272191807627678 0.010726368054747581 0.018027519807219505 0.010726919397711754 -0.04934452474117279" pbc="T T T"
Lu       1.84343853       0.49939146       2.92319162       0.00352351       0.00154637       0.00838087
Lu       1.84253054       0.49932822       7.21704033       0.00084335      -0.00134073      -0.02982078
In       0.13236316       2.21252276       5.06581586      -0.00077087       0.00021970       0.01663187
Cu       0.13467254       2.21352442       1.25673924      -0.00359594      -0.00042528       0.00480792
6
Lattice="2.9482239159113997 0.0006916764051767394 -0.0002348385619329103 -0.00069896018366928 2.9482235865698176 -0.0002425826857414119 0.0007230952033848406 0.000743468812574462 9.933283140768909" Properties=species:S:1:pos:R:3:forces:R:3 structure_index=3 total_energy=-39.36235046386719 stress="0.05732209235429764 -0.00022097751207184047 3.685583214974031e-05 -0.00022075521701481193 0.05731673911213875 3.085202843067236e-05 3.6949153582099825e-05 3.0219502150430344e-05 0.007058346644043922" pbc="T T T"
Zn       2.57238477       1.41352630       8.93910466       0.00106358       0.00106313      -0.00896125
Rh       1.09734359       2.88644624       3.82044331       0.00185674       0.00261309       0.00670928
W        2.57215871       1.41293775       5.54099741      -0.00030320       0.00043742      -0.00695520
Rh       1.09776461       2.88684310       7.25985215       0.00008621       0.00064087       0.01960015
Zn       2.57227671       1.41356580       2.14615188      -0.00183198      -0.00282377       0.00212707
Rh       1.09763552       2.88722005       0.57715568      -0.00087134      -0.00193070      -0.01252000
19
Lattice="5.663258742058078 0.10272454540363037 1.7638423416825528 2.4435488863987462 5.178338485543283 1.7839757449010707 0.34371366025205335 -0.029498533457482597 10.097405044724505" Properties=species:S:1:pos:R:3:forces:R:3 structure_index=4 total_energy=-150.4264373779297 stress="-0.010791939683258533 -0.0007682292489334941 -0.0009601674973964691 -0.000771016872022301 -0.008996637538075447 -0.000332202558638528 -0.0009576193406246603 -0.00032867497066035867 -0.011597760953009129" pbc="T T T"
O        3.15660130       2.03563335       8.50594848      -0.01079766       0.00240961       0.01289410
Tb       7.56616691       4.02687787      10.29410554      -0.01526046       0.00886810       0.01375699
Tb       4.54490627       2.33591587      10.41936131      -0.00150591      -0.00494336       0.01041287
Tb       2.84297534       4.56566872       5.07920341      -0.00707781       0.00533605      -0.00063546
O        3.80398433       4.51337411      10.05830479       0.01524274      -0.00120910       0.00003297
Tb       6.34049491       3.68042631       3.65720503       0.00552289      -0.00851122       0.00299919
O        3.97020908       0.14907063      10.43411431       0.03050891      -0.02211751      -0.03378882
Tb       5.07607668       2.57262469       7.01120751      -0.01247520       0.00729784       0.00830314
As       2.92745984       1.68119715       3.47924432       0.01141047      -0.00274274       0.00590955
Tb       1.73883279       0.52991279      10.15096438       0.01612493      -0.00554917      -0.00658136
O        6.36208551       2.58971512      11.75293255      -0.00785966      -0.01330101       0.00822090
Tb       2.23879084       0.83394874       6.69843994      -0.00766195       0.00693782      -0.00052517
O        4.47830368       0.38698638       6.60640574      -0.00930984       0.00977969      -0.00122476
O        2.38550505       4.51096821       2.87438545       0.00476395      -0.00090413      -0.00646517
O        4.68625199       3.32671215       4.95798681      -0.00450727      -0.00205284       0.00011859
O        6.18422224       2.49006510       9.01817434      -0.00545812       0.00915202       0.00320584
O        1.81987851       2.43664468       4.89820298      -0.01009387       0.00828056      -0.00891346
O        1.43805696       1.34068252       2.35832278       0.02332950      -0.00665553      -0.01020020
O        3.74361782       4.40545674       7.26797473      -0.01489549       0.00992543       0.00247994
4
Lattice="3.320363572298092 0.0006461271498716482 -1.4689802798679894 -0.6504662522771821 3.255747941158403 -1.4688145717704517 0.016946767117419492 0.020487378221455077 4.524701625082151" Properties=species:S:1:pos:R:3:forces:R:3 structure_index=5 total_energy=-36.60542297363281 stress="0.1243339255452156 -0.03937782347202301 -0.06940045207738876 -0.039377886801958084 0.1151992529630661 -0.08960922807455063 -0.0693998634815216 -0.08960969001054764 -0.004456975031644106" pbc="T T T"
Cr       0.90635656       0.35264221       3.18500945       0.00198966       0.00072823      -0.00134816
Cr       2.24212658       1.98116706       1.71635116      -0.00592421      -0.00305647      -0.00493246
Ir       1.24020943       2.78451163      -0.54647094       0.00259980      -0.00013457       0.00506363
Fe      -0.09478868       1.15611280       0.92245226       0.00133475       0.00246282       0.00121705
10
Lattice="3.9892094354034047 0.0009410162484672527 -0.000779430831324177 -0.0022032286302887134 7.088846071895376 -2.5784280300056275 0.0017727752493983256 -0.19111866165084057 8.1491072114028" Properties=species:S:1:pos:R:3:forces:R:3 structure_index=6 total_energy=-70.81401824951172 stress="-0.005034594796597958 2.857542312995065e-06 3.1638619475415908e-06 2.8160313831904205e-06 0.005734448321163654 0.0037028358783572912 3.2313830615748884e-06 0.003703117836266756 0.0026000894140452147" pbc="T T T"
Ce       3.61396035       6.10812935       5.30039627      -0.00002197      -0.00906490       0.01317328
Ce       1.61981806       1.30542314       2.22232511       0.00010822      -0.01649329       0.03602743
Rh       3.61282976       6.47112529       0.39776429      -0.00015467       0.01659083       0.04409039
Ce       1.61855655       4.43296118      -0.28851541       0.00008442       0.00898346      -0.01337981
In       3.61379164       4.09210806       2.51591494      -0.00020062      -0.03010705      -0.00118428
Rh       1.61943172       4.07002284       4.61450727       0.00025720      -0.01650028      -0.04551774
Os       1.62123156       1.08675512       7.26718271      -0.00013888       0.03517312       0.03330930
In       1.61861721       6.44887659       2.49578253       0.00021900       0.03018582       0.00267086
Ce       3.61492475       2.14684897       5.36808093      -0.00008352       0.01629367      -0.03713423
Os       3.61403146       2.36539010       0.32284308      -0.00006910      -0.03506128      -0.03205516
10
Lattice="3.9775418321202114 0.002292993982085395 -1.1422890872689662 -0.40288256358466934 5.696625643045538 -1.3922238259280053 0.05113726962125664 0.2931459810345308 7.6727729786858525" Properties=species:S:1:pos:R:3:forces:R:3 structure_index=7 total_energy=-10.857131958007812 stress="-0.03878415748476982 -0.00039710671990178525 0.016278738155961037 -0.00039703884976916015 -0.019627410918474197 -0.0016335289692506194 0.016278741881251335 -0.0016335493419319391 0.013185800984501839" pbc="T T T"
Zn       0.44403302       5.70713316       1.16839130       0.00156617      -0.03026063       0.00244927
Cd       2.18192718       3.89276058      -0.28116050      -0.00073508       0.00165583      -0.00059566
Zn       0.68424666       2.84161728       1.99797391       0.00682158       0.03892771       0.02306193
Zn      -0.00719542       2.37029022       7.08330561      -0.00142382       0.02872964      -0.00394874
Zn       2.38308053       1.04465419       0.41425356      -0.00012479      -0.00080417       0.00020297
Zn       2.96392298       4.52466183       2.44090815       0.00388155      -0.00073532       0.01529468
Cd       1.66530806       0.63612907       5.40835421       0.01065850      -0.03181494       0.03851901
Cd       3.15210061       1.74562793       3.09309895      -0.01074608       0.03439695      -0.03784907
Zn      -0.24744281       5.23515317       6.25351736      -0.00561693      -0.03884667      -0.02084386
Zn       1.45098207       3.55439929       4.66944799      -0.00428108      -0.00124840      -0.01629050
4
Lattice="5.000675700867526 0.00023667333171881676 -0.00018581310511692843 -0.0002651284168392813 4.7573721390124915 -2.8320121419400958e-05 0.0001388373280603312 1.7855212537462013e-05 5.040773759215758" Properties=species:S:1:pos:R:3:forces:R:3 structure_index=8 total_energy=-17.815513610839844 stress="-0.011118430644273758 -0.0002480719122104347 -0.00026559087564237416 -0.0002482565469108522 -0.03744835406541824 -9.192852303385735e-05 -0.00026564672589302063 -9.20968086575158e-05 0.0012120079481974244" pbc="T T T"
Sm       1.00205325       4.61409615       3.74114853       0.00033477       0.00190939      -0.00016284
Pr       3.50267228       2.23574451       3.74109578      -0.00098539      -0.00009667      -0.00017686
Tb       1.00204937       2.23582179       1.22071302       0.00046329      -0.00103216       0.00044608
In       3.50223608       4.61470334       1.22070766       0.00018730      -0.00078060      -0.00010636
5
Lattice="4.041946816436435 0.0013219391079199814 -0.00038015095031720915 -0.0016784317550470563 4.042001333002073 -0.00043447445955993976 0.00016763978345044075 0.00019469029547117953 4.805166504385638" Properties=species:S:1:pos:R:3:forces:R:3 structure_index=9 total_energy=-34.30204391479492 stress="-0.09978706389665604 -0.005559184588491917 -0.001539545482955873 -0.005558710545301437 -0.09723395854234695 -0.0017653172835707664 -0.0015397968236356974 -0.0017644859617576003 -0.00046635730541311204" pbc="T T T"
Dy       3.13063269       2.26885574       3.72968219      -0.00233105      -0.00366512       0.02592454
Li       1.11008542       0.24630054       3.73031102       0.00214234       0.00473185       0.00145892
Ru       1.10951201       2.26814255       1.32664655       0.00790542      -0.00025330       0.00015913
C        3.13111361       2.26946983       1.32990036      -0.00752842      -0.00552534      -0.02779863
Ru       3.13115695       0.24800325       1.32664500      -0.00018833       0.00471193       0.00025605
20
Lattice="6.588032262331714 -0.0003492752560209501 -0.10559615437856022 0.0001151836274074067 6.940478618735917 0.0017388065020728257 0.03112800658231262 -0.0005193572016437086 9.560363891589185" Properties=species:S:1:pos:R:3:forces:R:3 structure_index=10 total_energy=-101.63482666015625 stress="0.01087567862123251 -6.655491597484797e-05 -0.0016302348813042045 -6.695219053654e-05 0.011028112843632698 6.201741780387238e-05 -0.0016300830757245421 6.23543091933243e-05 0.008254552260041237" pbc="T T T"
Rb       4.95275927       5.22568865       7.82255156      -0.00035437      -0.00086320       0.00095410
Rb       1.64209540       1.75370720       3.09284829       0.00090152       0.00119743       0.00221669
Tl       4.88328039       1.50276559       5.52781501       0.00848727       0.04664743       0.00312566
Dy       4.93628226       5.22373767       3.04197607       0.00141509      -0.00102706      -0.00029532
F        4.20013619       4.79481084       0.99918049       0.02661512       0.00603338       0.00772044
F        0.22209523       4.13750168       2.73601398       0.00102961      -0.00978428       0.00595574
Dy       1.65867306       1.75516987       7.87402765       0.00064648       0.00092591      -0.00012782
Tl       4.99059953       2.00839919       0.55695591      -0.00821413      -0.04772131      -0.00521143
Tl       1.57323201       5.47747470       0.79930538       0.00760029      -0.04687107       0.00637205
F        3.53394538       2.84138271       7.46724359       0.00083138       0.00886303       0.00414052
F        0.66023872       3.58868011       8.59139164      -0.00615954       0.00001171      -0.00949578
F        2.36292806       1.32543454       0.35568247      -0.02605163       0.00659816      -0.00494440
Tl       1.71198217       4.97287679       5.39391155      -0.00850825       0.04683641      -0.00954541
F        3.93917442       3.38898010       3.75916157      -0.00589275       0.00203368      -0.01035485
F        5.93560708       0.11591483       2.32135166       0.00518708      -0.00043428       0.01064786
F        3.06220282       6.31020344       3.45074785      -0.00278771       0.00868435      -0.00478227
F        5.67143378       5.65154819       5.08486022      -0.02481136      -0.00511277      -0.00723261
F        2.65730519       6.86251826       7.15688875       0.00635074       0.00050655       0.00997730
F        0.92452303       2.18609553       5.83141837       0.02558601      -0.00760552       0.00597407
F        6.37197007       0.66879380       8.17557532      -0.00187092      -0.00891850      -0.00509463
16
Lattice="6.35372245919559 0.002006305440444329 3.6659487304028637 2.107863093907916 5.946976234850698 3.6736118808120564 0.0020839424269318636 0.007103606620795737 7.352002597136421" Properties=species:S:1:pos:R:3:forces:R:3 structure_index=11 total_energy=-61.8543815612793 stress="-0.008616591803729534 9.634363232180476e-05 -0.0012842976721003652 9.65769067988731e-05 -0.01291650254279375 0.0008948821923695505 -0.0012834430672228336 0.000894685450475663 -0.00875889603048563" pbc="T T T"
Ag       6.00141963       4.51424633      11.56306748      -0.00077156      -0.00053906      -0.00060682
K        4.94681760       1.54077875       9.72524981       0.00089954       0.00063234       0.00064603
Ag       6.00079683       4.51124049       7.88624093      -0.00100147      -0.00098351       0.00016296
K        1.76939347       1.53637927       4.21717250      -0.00061439      -0.00136013      -0.00039901
Ag       2.82459553       4.51370248       9.72968847      -0.00036352      -0.00121570      -0.00034285
K        1.77043240       1.54017541       7.89284261       0.00044896      -0.00029726      -0.00082349
F        4.93550337       5.92119660       9.72992930      -0.00483816       0.02618266       0.00162005
F        8.14619119       5.87043160       7.94567045      -0.00157520      -0.01091823       0.00684657
F        4.86396922       5.87240492       6.05348641      -0.00423566      -0.01221651       0.00174176
Na       2.82318646       4.50997016       6.05331258       0.00043034      -0.00049933       0.00042297
F        7.06464580       3.09884004       6.04336684       0.00598670      -0.02331082      -0.00102717
K        4.94633782       1.53723153       6.04987891      -0.00085993      -0.00053485      -0.00038825
F        7.13568002       3.14912909       9.71952254       0.00484662       0.01234474      -0.00180768
F        3.85304000       3.14720545       4.27401124      -0.00018863       0.01429104       0.00331783
F        3.85467306       3.15162104       7.82698061       0.00071956       0.01040693      -0.00673759
F        8.14696662       5.87292503      11.49863868       0.00111695      -0.01198239      -0.00262536
12
Lattice="5.144041464148736 -7.504343692865186e-05 -2.1438042188104385 -0.8912552061626845 5.062534321167225 -2.1450198929867854 0.018082928398405175 0.022100518094839476 7.274879247304719" Properties=species:S:1:pos:R:3:forces:R:3 structure_index=12 total_energy=-64.17771911621094 stress="0.023964442312717438 -0.0035906683187931776 -0.008015799336135387 -0.0035916389897465706 0.02175944484770298 -0.008955355733633041 -0.008013593032956123 -0.00895541813224554 0.006642572116106749" pbc="T T T"
Al       2.93586616       4.94763348       0.13853631       0.00127801      -0.00247449      -0.00308939
F        4.56156587       0.02796727       0.74398352      -0.00803682       0.00514545       0.02848524
F        1.05674680       1.87878795       5.03017331      -0.02817816      -0.00650814      -0.02004167
F        3.40103553       1.44490070       2.84497347       0.00937136      -0.02627301      -0.01921186
Rb       0.80614331       2.41652719       2.28424169      -0.00333379       0.00100297      -0.00795708
F        3.58239974       2.26374418      -1.38235472       0.04058206       0.01297933       0.02209829
F        4.04416639       4.20642012       1.21202606      -0.02941298       0.00463039      -0.01885608
Na       4.43376724       3.66971751      -3.49543038      -0.00152727       0.00204955      -0.00154827
Al       2.30187217       1.13905030      -1.35283389       0.00573775       0.00589169      -0.00362268
F        2.07234054       4.76667600       3.16963787      -0.00312284      -0.02278417      -0.02144575
F        1.64510770       0.75925406       0.17370121      -0.00351250       0.00857186       0.02491200
F        1.52272852       3.98721809       0.04054929       0.02015477       0.01776850       0.02027748
18
Lattice="3.8930894482661467 -0.02452046940744035 -0.9789564789532732 -0.5170161188040325 7.906953308220761 0.8611293676452438 0.12167663645498755 0.11631335124263135 8.229414680961684" Properties=species:S:1:pos:R:3:forces:R:3 structure_index=13 total_energy=-92.22074890136719 stress="0.015507183969020844 0.001224285108037293 -0.005293612834066153 0.0012216890463605523 0.02570788934826851 -0.0013125959085300565 -0.005294600035995245 -0.0013119352515786886 0.014394817873835564" pbc="T T T"
H        0.03969255       1.93646869       3.19261716       0.01746473       0.00937083       0.01350641
O        0.43523058       6.62714613       4.17323353      -0.00916904      -0.01038868      -0.02041940
H        0.53851676       2.20214903       0.78847253      -0.03802994      -0.00949734      -0.01133314
Te       1.93589262       7.32545921       6.84993119       0.02462494       0.00789069       0.02449080
O        2.37860008       4.12718262       4.71064013      -0.01197981      -0.00833821       0.01530674
H        2.71468455       5.72312794       5.12032426      -0.00920066       0.02688108       0.00704527
Te       0.08893918       7.25077265       2.48580294       0.00630258      -0.00479650      -0.00427037
Te       1.55881107       4.44612230       1.00359396      -0.01968926      -0.02227443      -0.01886290
O        3.58955992       7.75941769       7.80356067       0.02720547      -0.00294560      -0.00197548
Te       3.69954352       2.83268934       4.60161906       0.00325170       0.01702389      -0.00312359
O        3.42291637       2.64199798       2.70142502       0.02164561       0.00899002       0.00909168
O        2.99982523       6.64313777       5.43682573       0.00304115       0.01722695       0.00145513
O        1.94198292       6.90975992       1.60243708       0.00471223      -0.00223106      -0.01542774
O       -0.01028727       5.32071111       1.75835804      -0.00274557      -0.00763249      -0.00308636
O        0.47299017       3.04610875       0.19591476      -0.05027949      -0.00579131       0.00476834
O        0.71838976       1.17188415       1.91893400       0.00797992      -0.00517339      -0.01187176
O        1.66973752       5.36459544       7.51125681       0.00843184      -0.00715625       0.00146753
O        2.53697636       1.35405082       5.13111180       0.01643321      -0.00115803       0.01323831
12
Lattice="6.590353657991792 0.0011529391585298956 -0.08174107953581149 -0.0012880886171370558 6.5668271054093275 0.003547765024792706 -0.025757533953011304 -0.003394290506847618 6.5663928090821155" Properties=species:S:1:pos:R:3:forces:R:3 structure_index=14 total_energy=-62.108970642089844 stress="-0.004410694818943739 -7.280798308784142e-05 0.00018367296434007585 -7.243674190249294e-05 -0.002834201790392399 3.237964119762182e-05 0.00018355745123699307 3.316938818898052e-05 -0.0033405220601707697" pbc="T T T"
Te       4.11421482       2.35664446       0.77267819      -0.03226720       0.01736773      -0.01036893
Te       0.90652003       2.41218125       2.41177247      -0.00840513       0.03305880       0.02769317
Te       0.89523546       0.75277456       5.69376586      -0.01520382      -0.03582530       0.02922567
Te       2.51111217       4.09308885       5.60019637       0.03549857      -0.01849520       0.01012021
Pt       0.01684431       6.50793305       3.22967382       0.00199485      -0.00170907      -0.00265298
Te       4.10249938       0.81050755       4.05484988      -0.03793904      -0.01719226      -0.00932087
Te       5.73226742       5.69714365       0.67913642       0.00861005       0.03459309      -0.02701597
Te       2.52350719       5.63890810       2.31778400       0.03811510       0.01780345       0.01084393
Te       5.71886462       4.03754839       3.96179674       0.01133263      -0.03326599      -0.02824530
Os       3.30014154       6.50636860       6.47141699      -0.00185647       0.00117685       0.00045676
Os       3.31300864       3.22476423       3.18644849      -0.00157006      -0.00014263       0.00015872
Pt       0.00445014       3.22203213       6.51095302       0.00169040       0.00263056      -0.00089427
8
Lattice="4.419623491602107 0.0010136173680686286 -0.0005094932552173175 -0.0015761673735572672 7.294165369833531 -2.58862983204185 0.0009549564002218359 -0.0032450623604211486 7.764807397467767" Properties=species:S:1:pos:R:3:forces:R:3 structure_index=15 total_energy=-32.1466064453125 stress="0.004538843408226967 -0.0002446744474582374 -0.00023178210540208966 -0.0002448670275043696 0.025387149304151535 -0.0006389516638591886 -0.00023177174443844706 -0.0006385199376381934 -0.006362101063132286" pbc="T T T"
Ag       2.96538616       1.67132285       2.89160232      -0.00070700      -0.00086450       0.00074441
Sn       0.75576239       1.66817937       6.77486468      -0.00026888      -0.00139005       0.00039795
Ho       0.75435474       5.31691503       1.59916127      -0.00034178      -0.00079611      -0.00018613
Te       0.75298253       7.20378333      -0.85527493       0.00064785       0.02042510       0.02150278
Te       0.75516944       3.42921969       4.05375230      -0.00005687      -0.02082428      -0.02255744
Te       2.96424532       3.54180475       0.36983323      -0.00000701      -0.00976785       0.01363660
Sn       2.96388898       5.31515831       5.48208064       0.00065001       0.00208286      -0.00128346
Te       2.96388817       7.09165257       2.82806169       0.00008365       0.01113493      -0.01225470
8
Lattice="4.439666276485496 0.001922249954934532 -0.008424300787375993 -0.0013530284134653497 7.284436080730779 2.570883527265136 0.008472451273216698 0.07843286599048366 7.374187297145489" Properties=species:S:1:pos:R:3:forces:R:3 structure_index=16 total_energy=-29.743656158447266 stress="-0.008084407076239586 -0.0001125378257711418 -0.0002190341183450073 -0.0001125070484704338 -0.001931524369865656 0.0030889816116541624 -0.00021874946833122522 0.0030896097887307405 -0.011361686512827873" pbc="T T T"
Bi       2.59331728       3.06718161       4.25367383      -0.00009237      -0.01504546       0.01988657
H        2.59642123       6.83934468       8.93823881       0.00056719       0.01610112      -0.02648449
H        0.37520044       3.14302304       7.63504447       0.00099075       0.02766895      -0.01818776
Bi       0.37418665       6.71400214       5.54203075      -0.00087743      -0.02090141       0.03121537
Se       0.37573603       3.70414645       6.26072811      -0.00086820      -0.00460047      -0.02551061
Se       2.59799385       0.07727061       4.97741361      -0.00161956      -0.00725394      -0.02095819
Se       2.59088612       5.94095245       3.82959320       0.00031603      -0.00062139       0.02092862
Se       0.37007126       2.28887817       2.54325620       0.00158360       0.00465257       0.01911053
7
Lattice="4.878757324394433 0.051915073402367534 0.1069826664780403 0.12616540324196418 4.867464570592137 0.0730059599533395 0.05140623803742641 0.057083591834332884 4.918138135139295" Properties=species:S:1:pos:R:3:forces:R:3 structure_index=17 total_energy=-30.423707962036133 stress="-0.014281826093792915 -0.028919139876961708 -0.025389909744262695 -0.02891910821199417 -0.01310440432280302 -0.023468859493732452 -0.025389937683939934 -0.023468371480703354 -0.015807798132300377" pbc="T T T"
H        3.49588992       2.38197957       2.79915282       0.00975207       0.01417344       0.01527170
C        4.14787041       3.01309569       3.41654027       0.00426480       0.00452084      -0.00040720
H        3.52856973       3.66107397       4.04951265      -0.00757401      -0.00294050       0.00334761
Cl       1.54300772       0.45588751       0.80610880       0.00304222      -0.00266314      -0.00762835
H        4.77837288       3.62736383       2.76158173       0.00573517       0.00353257      -0.00183921
H        0.88350866       4.59587653       0.15291309      -0.01602766      -0.01508716      -0.01373288
H        4.77931561       2.37211070       4.04454107       0.00080742      -0.00153609       0.00498836
12
Lattice="4.7261404253701595 -0.001961617541659151 -0.695333443331611 0.0021396347064591595 4.793168799681299 0.0010153198605197362 -0.2306387896184568 3.360712293658241e-05 14.829214362095144" Properties=species:S:1:pos:R:3:forces:R:3 structure_index=18 total_energy=-49.4946174621582 stress="0.013176852837204933 7.133039161999477e-06 -0.00021437402756419033 7.206191185105126e-06 0.014568046666681767 1.1564142369024921e-05 -0.00021403924620244652 1.1457737855380401e-05 0.01180330105125904" pbc="T T T"
Se       4.51852223       2.60179191       5.59430334       0.00368355      -0.00016464       0.02580566
K        4.07988977       0.20244650       2.64097106      -0.00370688       0.00009459      -0.02317554
K        3.05124516       0.20372960      12.04693239      -0.00729377       0.00007728      -0.05183019
Mn      -0.09812718       0.20699199       7.04056481       0.00470763      -0.00016143       0.03155228
Mn       1.34952314       2.60025825       0.49542959      -0.00124719       0.00012814      -0.01400036
K        2.49953215       2.60201263       8.27904391       0.00028894      -0.00002133       0.00392245
Se       1.67934234       2.59992073       2.73003515      -0.00020890       0.00006662      -0.00086403
Se       3.62163574       2.59946782      -0.47101787      -0.00272213       0.00007029      -0.02283304
Se       0.26347295       0.20606303       9.49647320       0.00532712      -0.00009782       0.03897284
Se       2.15350088       0.20611751       5.93568810       0.00423757      -0.00016098       0.02803228
Se       1.26173782       0.20384582      -0.09755013      -0.00517709       0.00013305      -0.03491277
Hg       0.53444457       2.60182470      11.33432931       0.00211120       0.00003620       0.01933043
11