8
Lattice="4.484826063268032 -0.0013293379854409394 0.0002426250654501006 0.0008464997420086377 4.4840163944014195 0.00014003175141021285 -0.0004110469332932123 0.0005144796972114923 9.975859686501867" Properties=species:S:1:pos:R:3:forces:R:3 structure_index=0 total_energy=-11.402748107910156 stress="0.02155441977083683 -0.0017483956180512905 -8.371513104066253e-05 -0.0017485758289694786 0.02088266611099243 0.00010254125663777813 -8.3664279372897e-05 0.00010264417505823076 0.0011674984125420451" pbc="T T T"
Ho       1.78073015       0.23243685       0.00333765      -0.00102001      -0.00106010       0.00250686
Hg       1.78132442       2.47482612       7.56025637      -0.00127566       0.00055650       0.00593929
Hg       4.02286098       0.23171481       2.42424062       0.00188397      -0.00069493      -0.00691438
Hg       1.78158734       2.47415322       2.42451875      -0.00196507       0.00076320      -0.00729261
Hg       4.02418430       2.47390908       4.99210953       0.00234475       0.00059361       0.00107233
Hg       4.02294440       0.23236960       7.56096963       0.00101954      -0.00067424       0.00517027
Sn       1.78258625       0.23283184       4.99203445      -0.00211787      -0.00057321       0.00095176
Hg       4.02340851       2.47345678       0.00553233       0.00113037       0.00108922      -0.00143354
8
Lattice="4.183911774242654 0.0006934625397471671 -6.722554685093389e-05 -0.0013323375094608154 6.882328257751423 -2.2638393860294412 -3.828000649144495e-05 -0.01741625434982971 7.70819597225858" Properties=species:S:1:pos:R:3:forces:R:3 structure_index=1 total_energy=-47.786651611328125 stress="-0.03028915636241436 -0.0003482890606392175 0.00029667315538972616 -0.00034792497172020376 -0.013786633498966694 0.0073709674179553986 0.0002963997540064156 0.0073707737028598785 -0.007086385507136583" pbc="T T T"
K        3.69804785       6.79799992      -0.59255373       0.00066685       0.00061324      -0.00352723
Sm       1.60649032       6.79049302       3.26065374       0.00000752      -0.00059691       0.00066630
S        1.60737846       1.69214084       3.32250664       0.00035957      -0.00286968      -0.01182304
Eu       3.69925880       3.34921146       4.39171422      -0.00059356       0.00008501       0.00254414
K        1.60676900       3.35669084       0.53993086       0.00055350       0.00135665      -0.00394531
S        3.69865283       5.20192933       2.17211572       0.00017199      -0.00123419      -0.00927094
S        3.69957817       1.49747291       6.61252982      -0.00048075      -0.00101230       0.01046270
S        1.60704212       5.00503410       5.46112787      -0.00068513       0.00365815       0.01489340
4
Lattice="4.183948385216472 0.00012871897562857665 2.4131091297952456 1.3945070322158857 3.944285406707504 2.4132911037033717 0.0004653006623023443 0.00032160376894837243 4.82996012067823" Properties=species:S:1:pos:R:3:forces:R:3 structure_index=2 total_energy=-16.668933868408203 stress="0.07810691744089127 0.0005417257780209184 -0.007679639384150505 0.000541765068192035 0.08383750915527344 -0.005219755228608847 -0.007680009584873915 -0.005220372695475817 0.07889091223478317" pbc="T T T"
Er       1.03588566       0.60298214       5.55338284      -0.00989399      -0.00375931      -0.01030223
Ga       5.21783532       3.56087850       7.96392966       0.00441847       0.00126551       0.00377109
Pd       2.42917719       1.58779091       3.13617390       0.00245421       0.00165661       0.00337788
Mg       3.82318016       2.57450579       5.54981345       0.00302131       0.00083719       0.00315325
8
Lattice="5.216824951418811 0.0001325396837939769 7.909151580741076e-05 -7.310786621446152e-05 5.2157477270275185 -0.0005014272622455769 -0.0007437580616452866 -0.0009092930162882944 7.117752447195047" Properties=species:S:1:pos:R:3:forces:R:3 structure_index=3 total_energy=-9.289112091064453 stress="-0.012554598972201347 4.247188553563319e-05 -0.0006043403409421444 4.2480336560402066e-05 -0.020841781049966812 -0.0009660459472797811 -0.0006042890017852187 -0.0009660915820859373 -0.0327174998819828" pbc="T T T"
Ca       0.14741582       0.16913331       4.60890498      -0.00014229      -0.00070994      -0.00091399
Cd       2.75558460       2.77595427       4.60750860      -0.00028175       0.00009657       0.00132364
Cd       2.75556054       2.77576163       1.04926354      -0.00002506       0.00010163       0.00041475
Ga       0.14759049       0.16893234       1.04901363       0.00015136       0.00051800       0.00122476
Hg       0.14671467       2.77668073       2.73060957       0.00068297       0.00013003      -0.00503501
Hg       2.75578068       0.16813550       2.72997419      -0.00004086      -0.00018788      -0.00198378
Hg       2.75574869       0.16715432       6.48743360      -0.00011481       0.00065019       0.00093185
Hg       0.14696966       2.77695956       6.48616517      -0.00022954      -0.00059860       0.00403781
12
Lattice="6.958670339875845 0.004269099888667201 4.003626134139788 2.3226403631754398 6.556960454757166 4.006194174421325 0.01400226374928519 0.0053847158995883205 8.02844776201779" Properties=species:S:1:pos:R:3:forces:R:3 structure_index=4 total_energy=-58.58317565917969 stress="0.010473936796188354 1.1869039553857874e-05 -5.082638745079748e-05 1.0374797057011165e-05 0.010467329993844032 -1.3078639312880114e-05 -5.370217695599422e-05 -1.3242582099337596e-05 0.010433879680931568" pbc="T T T"
Br       2.90164186       5.31265928       7.56640062      -0.00038613      -0.01600587      -0.00037629
Y        3.98323447       3.41469580       5.68298799       0.02125841       0.01412401      -0.03447926
Y        3.99114641       3.41682137       9.44768325       0.01984257       0.01487641       0.03373434
Br       5.41479306       1.76092788       7.56340234      -0.01514411       0.00491130       0.00061405
Y        2.90232614       0.34433245       7.56927315      -0.00065215      -0.04279049      -0.00096808
Br       5.22599229       1.83129715      11.57855940      -0.00018124      -0.02630484      -0.00010462
Br       6.38016480       5.10783069       9.56727907       0.01297218       0.00854737      -0.02141839
Y        7.68787565       3.41957821      11.57262160      -0.04052509       0.01406952       0.00103213
Br       1.63420334       1.75596090       1.71766784       0.00823539       0.00485432      -0.01258600
Br       2.90774129       5.10836481      11.57977641      -0.02504838       0.00867295       0.00042098
Br       1.64130323       1.75640177       5.39294929       0.00738865       0.00596970       0.01282597
Br       6.38703652       5.10994636      13.58112200       0.01223916       0.00907576       0.02130526
12
Lattice="5.287496214809829 -0.012845160347901877 0.022623578767971882 0.02712949653236113 5.671807973687109 -1.8153016189917668 -0.01459232659305748 -0.3694646714759768 8.098950149386628" Properties=species:S:1:pos:R:3:forces:R:3 structure_index=5 total_energy=-39.85626220703125 stress="-0.00917951762676239 -0.0005253934068605304 -0.0005588063504546881 -0.0005255598807707429 -0.017005180940032005 -0.006999264005571604 -0.0005587764317169785 -0.00699910894036293 -0.015853917226195335" pbc="T T T"
Br       1.54222661       1.67267564       3.51219124       0.00018898      -0.00078480      -0.00776474
Ag       1.55408774       4.62963506       2.99799627       0.00068335       0.01542351       0.01757239
Ag       1.54617713       0.43332568       1.14870172      -0.00050038      -0.03152189       0.01614203
Ag       4.18585726       1.64354078       3.55021460       0.00039053      -0.00071540      -0.02340398
F        4.19324270       1.15341867       1.19828862       0.00035281       0.02713523      -0.03765370
O        4.19788554       3.18610402       6.52706470       0.00218470       0.00415816       0.00285560
F        1.55151843       5.33835959       5.21820171      -0.00055864      -0.00218870       0.01002919
Ag       4.20735921       3.73362443       0.64794357       0.00213372      -0.02274129       0.01049128
Ag       4.17003355      -0.16413918       7.24463073      -0.00238106       0.00120428      -0.01053699
O        4.17209174       2.01243195       5.97154485      -0.00407822      -0.00128233      -0.01129225
Cl       4.19709498       4.55451664       3.04710789       0.00078217       0.00849327       0.00846322
F        1.55904662       4.07762054       0.72463573       0.00080197       0.00281996       0.02509794
8
Lattice="4.414233279912896 -0.00019067823163115396 0.0006901526683602807 0.0006519506681145473 7.21640992428424 -2.549056746997668 -0.001254360440250793 0.005130832651099228 7.6633076064122285" Properties=species:S:1:pos:R:3:forces:R:3 structure_index=6 total_energy=-43.68778991699219 stress="0.012605341151356697 -0.0006001055589877069 -0.0005488932365551591 -0.0006002009031362832 0.022065892815589905 -0.004921987187117338 -0.0005492253694683313 -0.004922091495245695 0.028626512736082077" pbc="T T T"
Sb       1.56667758       0.42861124       4.27162736       0.00019741       0.03181323       0.03025696
Sb       3.77408465       4.10140969       2.99730881       0.00030483      -0.01211032       0.03943270
Tm       3.77456048       5.89166909       0.50148150       0.00034273       0.00207227      -0.00374029
Pr       3.77367154       2.28656350       5.60673250       0.00002606       0.00001448       0.00141006
Tm       1.56699028       2.28351227       1.77537250       0.00120786       0.00209044      -0.00091018
Sb       3.77476505       0.46709695       0.55335972      -0.00190641       0.00691491      -0.03530577
Sb       1.56771521       4.13900044      -0.72113043      -0.00043424      -0.03120137      -0.03044008
Tb       1.56693632       5.89480097       4.33271647       0.00026166       0.00040634      -0.00070338
11
Lattice="3.873503877628632 -7.04493264223574e-05 -0.7110667143879753 -0.7583720302224706 7.985079135976921 -4.132059600221457 -0.21765648826601153 -0.08816847581427235 9.720390619345094" Properties=species:S:1:pos:R:3:forces:R:3 structure_index=7 total_energy=-48.92104721069336 stress="-0.025411680340766907 0.00012415547098498791 0.002238259185105562 0.00012417150719556957 -0.014096174389123917 0.0006774626090191305 0.0022383402101695538 0.0006775948568247259 -0.013546496629714966" pbc="T T T"
Ho       2.45053402       5.43627387       4.98520053       0.00170465       0.00381757       0.00723255
Ho       1.70232583       5.17808797       0.90880431       0.00489530      -0.02535691       0.02622284
Ho       1.98845272       2.16687413       2.46759370      -0.00164233       0.03497114      -0.00872448
Ga       2.42894573       0.27656402       4.86829798       0.00901848       0.02054882       0.04581576
Ho       0.57607215       2.46975109       5.67991055      -0.00077874      -0.02256601      -0.00315198
Ho       0.10786578       7.40091602       3.12862769      -0.00446017       0.00792397      -0.02250318
Ga       1.60983336      -0.00355260       0.40557407       0.00430249      -0.03122591       0.02375296
Nd      -0.65273083       7.13440591      -1.01450607      -0.00403705      -0.01219590      -0.02163155
Ga       0.14297659       4.35450861       3.31992743      -0.00833394      -0.01848230      -0.04328024
Nd       3.32712922       2.34661666      -1.14559930       0.00116031       0.00332389       0.00594726
Ga       1.16493206       4.67949920      -2.01853485      -0.00182902       0.03924164      -0.00968000
9
Lattice="6.598563766540928 -0.0028241458908686845 -2.0610904460710575 -3.740531168346599 5.868341020151918 -0.8830207991807297 -0.07389862535071906 -0.06624994977527532 6.987935955689318" Properties=species:S:1:pos:R:3:forces:R:3 structure_index=8 total_energy=-22.924480438232422 stress="-0.008778247982263565 0.0036766044795513153 0.0005982417496852577 0.003676344407722354 -0.007434546481817961 0.009891333989799023 0.0005983884911984205 0.009891054593026638 -0.010959142819046974" pbc="T T T"
Br       2.50255670       2.11241921      -0.43634632      -0.01617844      -0.01713591       0.00876275
Ag      -2.37869980       5.74012804      -0.53364150       0.01066358       0.01458079       0.02218830
Br      -0.80801659       3.53964769      -0.19984456       0.00317603       0.01222016      -0.02169514
Pd       1.50351979       4.13231344       0.70132145       0.00019535      -0.00126034      -0.00044359
Br      -2.78174294       4.72550360       3.66243440      -0.00872239      -0.00729972       0.02173178
Br       1.90210401       5.52879094      -1.38527053      -0.00237785      -0.02997613       0.02260275
Ag      -1.21394077       2.52379855       3.99372867      -0.00869416      -0.01600309      -0.02244084
Br       1.10487784       2.73588489       2.78766590       0.00305527       0.03087804      -0.02085057
Br       4.24350358       0.28343146       2.72237344       0.01888254       0.01399610      -0.00985532
12
Lattice="5.18541714736938 0.010636322863055265 -2.0596994548434586 -0.6246507763227128 5.950823188837661 -1.5285434592422935 0.0468123036627918 0.014257870604164908 7.718244189255388" Properties=species:S:1:pos:R:3:forces:R:3 structure_index=9 total_energy=-70.25639343261719 stress="-0.022264547646045685 -0.0023620245046913624 0.00047495501348748803 -0.0023621192667633295 -0.019016245380043983 -0.0011303550563752651 0.00047524477122351527 -0.0011305749649181962 -0.024301201105117798" pbc="T T T"
F        1.64722638       1.32844154       2.39521487       0.01229882       0.00795361       0.00943668
F        4.20403196       2.95118541      -0.78964083      -0.00195356      -0.00156447      -0.02265641
F        2.80671629       5.91473047      -0.83401789      -0.00773634      -0.02167855       0.00754064
Tl       4.11359803       4.58543656      -2.80334541      -0.03154500       0.00203708       0.03702708
Tl       1.92627307       1.91241237      -1.11470148       0.03314658      -0.00181054      -0.03148003
Ca       0.45145521       3.25115403       2.93010499      -0.00122489       0.00106729      -0.00330005
F        1.88363835       3.56039097       4.59121637       0.00072309       0.00308295       0.01908061
Hf       3.35590389       0.28117725       2.66470534       0.00207226      -0.00230742      -0.00302153
F        1.66802288       4.52970010       1.39513091      -0.00994939       0.01809001       0.03411844
F        4.42034343       1.98245697       2.40325605       0.00780001      -0.01780313      -0.02651814
F        4.44123247       5.18565494       1.40253059      -0.01393336      -0.00726533      -0.00343180
F        3.27873610       0.59711095       4.63554804       0.01030151       0.02019832      -0.01679569
4
Lattice="4.9296608589179565 0.0007111252115833193 -1.7145439091229175 -2.4507149411117424 4.275505777931223 -1.7416516796001487 -0.0035840186549091165 0.000491150368633402 5.216284993687101" Properties=species:S:1:pos:R:3:forces:R:3 structure_index=10 total_energy=-23.372127532958984 stress="0.004974799230694771 -0.005146963521838188 0.019464343786239624 -0.0051468960009515285 -0.03656443580985069 -0.0028558867052197456 0.01946396566927433 -0.0028554571326822042 -0.006417196709662676" pbc="T T T"
Se       2.57284161       1.08380076      -0.36189712      -0.00272452       0.00032849      -0.00040362
Eu      -1.12048041       3.22355205      -0.37522523       0.00313736      -0.00018151       0.00062769
Se       1.34082821       3.21989503       1.37944224       0.00020520       0.00280376      -0.00798034
Se       0.10317226       1.08805069       3.09965356      -0.00061801      -0.00295070       0.00775626
20
Lattice="8.143094415896934 -0.07186013355277923 1.6472576898719766 -0.6923689298354393 6.820148768100286 0.7478192886464387 -0.015232780702252497 0.01344875283458931 7.927654250066644" Properties=species:S:1:pos:R:3:forces:R:3 structure_index=11 total_energy=-65.74336242675781 stress="0.012703402899205685 0.0005409112782217562 0.0006023552850820124 0.0005409980658441782 0.01493956707417965 -0.0003523520426824689 0.0006026672781445086 -0.00035211056820116937 0.012176844291388988" pbc="T T T"
Au       5.84111915       2.00744196       9.00902557      -0.03731446      -0.02088531      -0.01445438
Sr       7.50248627       1.63989394       3.82684109      -0.00669909      -0.00249731      -0.00431394
Au       1.60400750       3.41971199       3.98512690      -0.00151748      -0.00265080      -0.01317215
Ga       1.68783812       3.90253341       1.06559724      -0.00539735       0.03538213       0.00244701
Au       1.73352322       0.58649100       4.30731139      -0.01251372      -0.01437612      -0.02508789
Mg       2.98417948       5.81698386       3.68520326       0.01517864       0.00427867       0.00358621
Au       2.02014091       5.08369799       6.42495119      -0.01338849      -0.00274626      -0.01530374
Ga       3.75207802       6.38714390       8.54409738       0.01916780       0.00506798       0.00678645
Sr       7.01117228       4.60398632       7.12638596       0.00204623      -0.01621606      -0.00331443
Au       0.65860190       2.58411306       7.03734290      -0.02621418      -0.00521351       0.03838029
Au       6.02742086       6.13734779       2.26468996       0.02452843      -0.00986278      -0.01134218
Mg       0.46477638       6.73048939       7.89249959       0.01624841      -0.00333851      -0.00079189
Au       7.22420381       0.89034833       6.91573529       0.00672253       0.00584332       0.00369013
Au       2.58720905       1.07862583       1.20617457       0.01309720       0.00536369      -0.00794224
Au       4.14340268       4.05684124       1.69411274      -0.00723435      -0.00513796       0.00742118
Au       5.48089148       4.29386679       4.31958773       0.01212122       0.00517613       0.00345090
Au       4.50390228       6.50880207       6.00756055       0.00489474      -0.00626534       0.01192780
Au       4.24503708       1.76295338       3.42572303       0.00237923      -0.00510277       0.01668705
Sr       3.84021469       2.48873665       6.42808807      -0.01890538       0.00549364      -0.01004265
Au       0.08457774       5.41522344       2.47379683       0.01280016       0.02768724       0.01138838
10
Lattice="6.800836690785249 -0.005049821633493708 2.996478270134805 2.7375535058317646 6.223234359031232 2.994654316955098 -0.0069307221631566855 -0.0040749657762609364 9.2212472918339" Properties=species:S:1:pos:R:3:forces:R:3 structure_index=12 total_energy=-36.74420928955078 stress="0.0019090080168098211 -0.0002566180774010718 4.0079907194012776e-05 -0.00025640259264037013 0.002001825487241149 -7.314568210858852e-05 4.004017682746053e-05 -7.262916915351525e-05 0.00138419633731246" pbc="T T T"
Ir       2.82099741       4.63701562      11.65074263      -0.00846031      -0.00344843       0.01574728
K        3.43189142       0.59955424      10.26687390       0.02126891       0.00867496      -0.03942509
Cl       3.12135416       2.55381862       3.53884289      -0.02214926      -0.03224468      -0.00905655
Cl       5.14892911       4.70699945      11.15332340       0.01454216      -0.03944352      -0.00855462
Cs       7.95174200       3.55041733       9.22219812       0.00448737      -0.00044355      -0.00798509
Cl       2.40018534       3.50655446       9.59753535      -0.03339950       0.01262614      -0.01927713
K        6.21850875       2.41230681       3.95016118      -0.01497543      -0.00903717       0.02952321
Cl       3.21663810       5.75307036       4.50060461       0.03872620      -0.01103958       0.01486936
Cl       7.30857171       4.54581097       5.95647046      -0.02281439       0.04238013       0.00632541
Cl       6.57674122       0.50961938      10.57423524       0.02277435       0.03197575       0.01783306
15
Lattice="8.721196884496674 0.43537170652387824 2.673934544843493 3.702527410399588 9.253063817128865 0.9627471457186105 -0.06532734773209328 -0.23878381670248405 11.254253176359342" Properties=species:S:1:pos:R:3:forces:R:3 structure_index=13 total_energy=-26.576152801513672 stress="0.00356102641671896 0.0009398636175319552 0.0006384958396665752 0.0009400901035405695 0.002036555903032422 0.00011879601515829563 0.0006384168518707156 0.00011855158663820475 0.0035799674224108458" pbc="T T T"
Au       9.99461154       5.05420000       4.54003436       0.00615327      -0.00020438      -0.00789010
I        4.02758405       1.58171307       5.14383934      -0.01438290      -0.00182563       0.04616064
I        9.01866004       4.04362456       6.85654778       0.01384018      -0.00516827      -0.01505107
I        7.63245025       7.89612615      10.03704830      -0.01835583       0.00349158       0.00479277
I        7.30159905       1.44883292      10.21028458       0.00111615       0.00511863       0.00423765
I        3.47239436       5.75978017       6.54458009      -0.00050575       0.00516695      -0.01488441
Rb       3.95646324       2.68721259       8.86933215      -0.01077699       0.00514161      -0.00399063
I        6.51895194       2.70626537       5.91143677       0.00037587      -0.00404984       0.01339173
I        9.25103145       7.48660504       5.29989757       0.01395994       0.00009960      -0.00071456
I        8.89625053       1.84213671      12.52131029       0.00652488      -0.00110443      -0.00377901
I        6.25003407       6.87176026      12.72991874      -0.00026900      -0.00706705      -0.00255013
I        1.92513506       2.09832684       1.07186287       0.01135653      -0.00078002      -0.00923150
I        5.59456959       6.75453397       8.27516476      -0.01030147       0.00317146      -0.00292021
I        2.25738004       5.34706248      10.86338570      -0.01135704       0.00432657      -0.00451922
I        4.94928351       6.43293073       3.80130007       0.01262220      -0.00631693      -0.00305174
8
Lattice="4.115159927821749 -0.001290463325533786 -1.069092680071776 -0.23987923751648477 5.032243683384331 -0.9293750905648127 0.15680352857010674 0.0003154203346633039 9.058426289683807" Properties=species:S:1:pos:R:3:forces:R:3 structure_index=14 total_energy=-41.55147171020508 stress="0.038384515792131424 -0.001860839081928134 -0.0073640248738229275 -0.0018607535166665912 0.022631948813796043 -0.006872410885989666 -0.007363666780292988 -0.006872474681586027 0.011834876611828804" pbc="T T T"
Tm       1.88731095       4.49283510       6.42663221       0.00347502       0.02615859       0.01557696
Tm       3.91393483       1.86160078       5.77698031      -0.00759439       0.00443389      -0.03544551
Tm       1.20878086       1.43489474       3.81829747      -0.00819413      -0.00895799      -0.02876674
Co       2.25179761       2.16695712       7.83227406       0.00927454       0.00589909       0.03829035
Tm       0.41603834       3.52119371       0.76405685       0.00021581      -0.03325976       0.00234647
Pb       3.24372917       3.99986456       3.19396418       0.00849716       0.00549791       0.03209588
Co       0.24989198       0.87488223       0.12792939      -0.00884719       0.02131182      -0.03321064
Pb       2.70847546       1.07228356       1.13701935       0.00317321      -0.02108363       0.00911328
5
Lattice="3.589933257135937 -3.074618559337465e-05 -1.9787885844172337e-06 3.306206047757634e-05 3.9742725934192826 -1.1907004062799762 -0.0002241548981779954 0.015907045169523674 7.279607966798951" Properties=species:S:1:pos:R:3:forces:R:3 structure_index=15 total_energy=-19.767990112304688 stress="0.061008021235466 7.048198312986642e-05 0.00023439954384230077 7.104057294782251e-05 -0.0671829879283905 0.010106949135661125 0.00023515400243923068 0.010106024332344532 -0.04116881638765335" pbc="T T T"
Tm       3.18480816       0.77804551       0.25502523      -0.00047821      -0.00430967      -0.01572341
Tm       3.18438762       1.86191942       3.87107196       0.00034541       0.00453441       0.01600501
Cd       1.38954782       3.30731240       1.46770105       0.00019741      -0.00041928       0.00001032
Cu       1.38943842       0.13341329       5.32982181       0.00016681      -0.00620119      -0.02107380
Cu       1.38960933       2.52245422       6.07599592      -0.00023134       0.00639569       0.02078186
8
Lattice="4.09554806912312 -0.0027318081632869066 0.0013784448402595023 0.004564881419612176 5.398411175753725 -2.0677277895187123 -0.0026836821811044185 0.03682049370764963 8.16947188626822" Properties=species:S:1:pos:R:3:forces:R:3 structure_index=16 total_energy=-55.09605407714844 stress="-0.008339476771652699 8.187782077584416e-05 -2.0942414266755804e-05 8.094139047898352e-05 -0.007171922829002142 -0.001274464768357575 -2.1068075511720963e-05 -0.0012745654676109552 -0.009295321069657803" pbc="T T T"
Ce       2.50750574       2.66615380      -0.10422850       0.00030789       0.00395772       0.02401513
Si       0.45962223       3.46440748       1.96191316      -0.00078178       0.02114837       0.00313801
Si       2.50716846       4.98836666       6.07103710       0.00087480      -0.01933654      -0.00179412
Ce       2.50608180       2.71574679       4.05651241       0.00053944       0.00365336      -0.00838149
Ce       0.45745716       0.35157793       2.03536439      -0.00046211      -0.00436851      -0.02237061
Rh       0.45849392       3.43989672       6.06699804      -0.00088688      -0.02515261       0.01265359
Ce       0.45610477       0.33880660       6.04469519      -0.00040610      -0.00454932       0.00492722
Rh       2.50831102       5.01305764       1.96591923       0.00081461       0.02464759      -0.01218774
12
Lattice="3.581781076994413 0.0006455390434928884 -0.0007153316763495086 -0.002835549886376891 9.84004297258781 -5.673236548337449 0.0017268617778754241 -0.006491356152181009 11.35823605192096" Properties=species:S:1:pos:R:3:forces:R:3 structure_index=17 total_energy=-30.199581146240234 stress="-0.01312789972871542 -0.00016632209008093923 -0.0001113695980166085 -0.00016631530888844281 0.013797907158732414 0.0008482194971293211 -0.00011140371498186141 0.0008482046541757882 0.01336437463760376" pbc="T T T"
Tl       1.50613082       5.56847460       7.22396872      -0.00000988       0.00050414      -0.00161174
Sn       1.50428328       3.93454741      -1.29559796      -0.00003189      -0.00027324      -0.00203654
Cs       1.50693919       0.65091311       4.38022258      -0.00038438       0.00080947      -0.00045364
Tl       3.29681565       4.32477743       4.38304850      -0.00005844      -0.02200502      -0.00009541
Tl       3.29708397       2.48584667       7.56277064       0.00010193      -0.01000928      -0.01916763
Tl       3.29622912       2.49114031       1.20161781      -0.00001099      -0.01160737       0.01913934
Tl       3.29489892       8.65754003      -4.47844107      -0.00021922       0.01083666       0.02286278
Tl       1.50465172       5.57151459       1.54308721       0.00007237       0.00141373       0.00162051
Sn       1.50543161       7.20910803       4.38297028       0.00018765      -0.00090568       0.00103781
Tl       3.29478237       6.82049312      -1.29543944       0.00020681       0.02058578      -0.00002484
Tl       1.50700522       0.64952983      10.06088451       0.00011788      -0.00065463      -0.00142095
Tl       3.29530629       8.65431985       1.88729044       0.00002816       0.01130544      -0.01984970
10
Lattice="4.441764322513305 0.0013673183807517556 0.9957641798755332 2.1254200866397652 5.497595380889982 0.9160146134155589 -0.08428541190809714 0.04846995470561113 10.783116836112578" Properties=species:S:1:pos:R:3:forces:R:3 structure_index=18 total_energy=-39.363494873046875 stress="0.021615343168377876 3.0909868655726314e-05 0.00013567970017902553 3.105531868641265e-05 0.016997968778014183 -0.0001735729310894385 0.00013621961988974363 -0.00017320166807621717 0.021193038672208786" pbc="T T T"
Ca       6.03918225       5.31529728       7.25742497      -0.00098385      -0.02494463       0.00330605
Co       4.87110936       3.58509985       2.06101756      -0.00098940       0.04804424       0.00796051
Ca       2.88488713       2.72583579      10.92638977       0.00109320      -0.00130527      -0.00453421
Sn       3.85463778       3.04072341       6.60065832       0.00035699      -0.01130059      -0.00232783
Ca       2.17382978       2.48202817       3.69177318       0.00268337       0.03894117      -0.01118775
Sn       4.37855492       4.80650049       4.25778934       0.00241191       0.01205441      -0.00932024
Co       3.37633784       4.42262937       8.73435049       0.00155012      -0.03652408      -0.01038818
Ca       0.49671310       0.17145626       0.77007130      -0.00016979       0.00017709       0.00356263
Ca       1.21555337       1.86848613       7.97032991       0.00129085      -0.01214978      -0.00668193
Sn       5.30574234       4.92770844      10.53097500      -0.00724331      -0.01299258       0.02961094
10
Lattice="5.50746088993214 -0.027451199291733203 -0.8785724502855677 -1.2111161964334793 6.4365944937719 -1.3994647447239574 -0.012717069704546675 0.06585794459958486 5.259245757329491" Properties=species:S:1:pos:R:3:forces:R:3 structure_index=19 total_energy=-27.911296844482422 stress="-0.01658397726714611 -0.007036082446575165 0.0055685448460280895 -0.007035539019852877 -0.03099866211414337 -0.0023119973484426737 0.0055685448460280895 -0.00231194612570107 -0.0007048475672490895" pbc="T T T"
Cd       2.48684212       5.72590339       2.23491787       0.00377355       0.01547431       0.03406273
Cd       3.83276027       3.13591466       2.21013475      -0.01383323      -0.01705660      -0.03337218
Li      -0.12458493       0.90396599       2.90199694      -0.01090969      -0.00435440      -0.02678708
Cd       1.71433170       3.96988347      -0.46170529       0.01395096       0.01847901       0.00330346
Cd       5.18786248       1.63304163      -0.62917113       0.01921472       0.00935940      -0.02002326