12
Lattice="6.520888102611024 0.009653113113668763 -1.594044664055019 -0.6105323254310716 5.7517472808992265 -2.505833545925178 0.2653427748138048 0.1513187947971252 8.209750896298813" Properties=species:S:1:pos:R:3:forces:R:3 structure_index=0 total_energy=-34.40288162231445 stress="0.017568713054060936 0.0031705147121101618 -0.005408290773630142 0.0031704737339168787 -0.020809940993785858 0.010227720253169537 -0.0054082307033240795 0.010227751918137074 -0.002962777391076088" pbc="T T T"
Na       1.71571973       4.38256505       2.75298306      -0.00469672       0.00306265      -0.00266508
Sn       0.44390570       5.43621602      -2.43461107       0.00488626      -0.00475503      -0.01812361
Na       4.97022077       4.39657560       1.94809366       0.00026313      -0.00009581      -0.00673452
Ga       6.15143810       2.07261651      -0.34188049       0.00613036      -0.01933299       0.01557535
Sn       1.80931920       1.10145031       3.10967758       0.00843158       0.00001945       0.01187965
Na       0.81698189       2.30192604       6.13070093       0.00384080       0.00095637      -0.00024859
Ga       2.87885700       2.06742594       0.45051410       0.00165243      -0.02304488       0.01664043
Sn       3.71769151       5.44760362      -3.23787833      -0.00898531      -0.00134022      -0.00986584
Na       4.08325172       2.31431415       5.33257098      -0.00365769       0.00099372      -0.00010599
Ga       2.63628934       4.48338776      -0.59304645      -0.00247551       0.01666471      -0.00345885
Ga       5.89847819       4.48814643      -1.37280781      -0.00887003       0.02204289      -0.02077768
Sn       5.06497656       1.11296776       2.30426758       0.00348070       0.00482916       0.01788472
18
Lattice="7.20469621527251 -0.002795948954636754 0.0021797301893165992 -3.5998101381240137 6.240613176465986 -0.0007449904296863469 -0.0037181910458012773 -0.0010895437109566795 13.261790346583492" Properties=species:S:1:pos:R:3:forces:R:3 structure_index=1 total_energy=-55.6080436706543 stress="0.008065350353717804 -6.362691920003272e-07 1.0386492249381263e-05 -6.327609867184947e-07 0.008057799190282822 -7.339608600887004e-07 1.0469466360518709e-05 -7.37496407055005e-07 0.0005294828442856669" pbc="T T T"
Mg      -0.53044016       1.47823986       1.33171060       0.00020425      -0.00023211       0.00030178
Na      -0.53219901       1.47887055       7.96285021       0.00005111      -0.00020920      -0.00007196
Br       0.83843448       3.61226915       6.41420170      -0.01720425      -0.00146322      -0.00626608
Mg       3.07132903       3.55711236       7.96395073      -0.00059945       0.00005955      -0.00039784
Sn      -0.52986623       5.63789078       4.89763345      -0.00011956      -0.00009788       0.00893662
Br      -1.59421045       3.40389412       2.91681345       0.01294181       0.00248083      -0.00384094
Pb       3.07265683       3.55632243       1.33342922       0.00002452       0.00028041       0.00024314
Br       2.00075771       1.59597443       9.51321242      -0.01011430      -0.01353129       0.00620572
Br       1.93683738       5.83204317       2.91723755      -0.00806098       0.01037954      -0.00367314
Sn      -0.53100637       5.63817730      11.02828791       0.00002070      -0.00035723      -0.00835403
Br      -2.99860258       5.83255572      13.00864162       0.00842376       0.01105116       0.00367317
Br       0.53138725       3.40241446      13.00959450      -0.01304966       0.00221386       0.00340857
Br       1.90791186       5.46428643       9.51348716      -0.00720396       0.01534443       0.00590912
Br      -1.90058761       3.61403492       9.51127440       0.01682852      -0.00259343       0.00633144
Br      -2.96928351       5.46638355       6.41237403       0.00744799       0.01525607      -0.00609192
Br       4.47150062       1.43445310      13.00992761       0.00450824      -0.01230881       0.00368292
Br       1.66853057       1.43564892       2.91761675      -0.00449581      -0.01241777      -0.00379743
Br       4.13970387       1.59517604       6.41474732       0.01039708      -0.01385488      -0.00619916
6
Lattice="4.595647215512881 -0.0009613994685269866 2.6538787506794557 1.5327763419880713 4.332393745955402 2.6538254995589936 -0.0005863222462332869 -0.0005460071336255162 5.306845714624082" Properties=species:S:1:pos:R:3:forces:R:3 structure_index=2 total_energy=-39.49245071411133 stress="-0.07078724354505539 0.0016672017518430948 -0.00045195038546808064 0.0016675322549417615 -0.07221277058124542 -7.360248127952218e-05 -0.00045140821021050215 -7.316618575714529e-05 -0.0730837807059288" pbc="T T T"
Yb       1.72139177       1.28156875       5.24169460       0.00069621       0.00130937       0.00736946
Tm       3.25279435       2.36380433       7.89607041       0.00433980       0.00449132       0.00214564
Rh       4.78530701       1.82249937       5.24453359       0.00410542       0.04209810      -0.00577591
Rh       3.25338487       3.98945553       5.24235234       0.04069423      -0.01048754       0.00499284
Rh       5.55310415       3.98995254       6.57212355      -0.02744221      -0.01552843      -0.03233319
Rh       5.55344131       3.99066288       9.22517481      -0.02239341      -0.02188279       0.02360119
10
Lattice="4.897470632105596 0.002259604751881403 -2.8108266277556644 -1.6141531760969818 4.624085614869821 -2.808882281678217 0.004927257965410433 0.004229307776274592 5.6780806418287035" Properties=species:S:1:pos:R:3:forces:R:3 structure_index=3 total_energy=-60.74626922607422 stress="0.03502350673079491 -0.0026288104709237814 -0.0030892749782651663 -0.0026270118542015553 0.03256375715136528 -0.0038331178948283195 -0.0030893131624907255 -0.0038293814286589622 0.03096960484981537" pbc="T T T"
Sr       3.17035198       2.64739366       1.09632657      -0.00074431       0.00489062       0.00010512
Te       1.54086948       3.80181957      -1.74198055      -0.01513714      -0.01579146       0.00336460
O        2.99900799       2.52901960      -1.55092911      -0.03004909       0.01584685       0.00812399
Sr       1.52876955       0.33621626       3.90531367       0.00321023      -0.00489434       0.00342131
Mg      -0.10245720       1.48766630       1.06699573       0.01221614       0.00803225       0.00600291
O        4.16739244       0.13779382      -0.28737095       0.01049304      -0.02957845       0.02454799
O        3.94846551       0.29305493       2.45294222      -0.00936157      -0.01059493      -0.02651829
O        1.69696759       0.45032199       0.87617167       0.02503479      -0.01279718      -0.00938565
O        0.52663170       2.84321547      -0.38676686      -0.00066477       0.02451009      -0.03137219
O        0.75377432       2.68755733       2.55153505       0.00500244       0.02037609       0.02170956
4
Lattice="3.3763875115060564 -0.00038067902063677704 -1.832523130475892e-05 0.0003471145962239032 3.3764215610726214 0.00026238302222488647 4.274412511572911e-05 -0.0005798784127927917 6.755014721130628" Properties=species:S:1:pos:R:3:forces:R:3 structure_index=4 total_energy=-30.654394149780273 stress="-0.07778007537126541 -0.0005422326503321528 3.785731678362936e-05 -0.000541563902515918 -0.07624800503253937 -0.00042943935841321945 4.001246998086572e-05 -0.0004295575781725347 -0.03944459185004234" pbc="T T T"
Lu       0.95706625       1.48752550       6.23301875      -0.00081646       0.00116284      -0.00768600
Er       0.95697500       1.48789641       2.85502305      -0.00047264       0.00075438       0.00142677
Ir       2.64529767       3.17585856       4.56473931       0.00041928      -0.00059507      -0.03597891
Ir       2.64518623       3.17629641       1.14472665       0.00086998      -0.00132214       0.04223811
15
Lattice="7.544695869572095 0.0027105416545401217 -4.349797783060155 -2.510968675759617 7.113906010571671 -4.350925069522121 -0.003898382457855774 -0.004110923215441583 8.71141387444307" Properties=species:S:1:pos:R:3:forces:R:3 structure_index=5 total_energy=-87.2832260131836 stress="0.0026756958104670048 -7.769730291329324e-05 9.709338337415829e-05 -7.824522617738694e-05 0.0025667937006801367 0.00017055105126928538 9.764401329448447e-05 0.00017002229287754744 0.0026010051369667053" pbc="T T T"
Y        5.35747691       3.56065410       2.60559899      -0.00012683       0.00210827      -0.00092980
Y        1.58556075       3.55929837       4.78028961      -0.00119373       0.00306187      -0.00105508
Te       4.09925079       1.78161817       4.78055040       0.00017022       0.00029003       0.00122343
Ho       2.84282149       0.00510212       2.59993677      -0.00023785      -0.00133935      -0.00157392
Te       2.82970313       5.31924667       2.58098889      -0.00127165      -0.00329068      -0.00455239
Y        2.84040968       0.00260626       6.95572842       0.00153440       0.00014295       0.00056335
Y        6.61330320       0.00413196       4.78071846      -0.00093163       0.00010557       0.00013144
Y        6.61588650       0.00635312       0.42470357      -0.00183817      -0.00169817      -0.00121713
Te       2.83064888       5.31985419      -1.72495066      -0.00388360      -0.00689873       0.00823864
Te       0.34061884       1.80009873       6.97884818       0.00292280       0.00364190       0.00778720
Te       0.34433709       1.80442383       2.57311584       0.00369693       0.00594154      -0.00854558
Te      -0.92904575       5.33734959       4.77995266       0.00342796      -0.00077903       0.00138902
Ho       5.35970995       3.56329867      -1.75061825      -0.00040323      -0.00055232      -0.00029745
Te       4.07120961       1.80531955       0.42456459      -0.00920671       0.00610882      -0.00041776
Te      -0.89562572       5.31794591       0.42405280       0.00734121      -0.00684267      -0.00074394
12
Lattice="7.343178836969451 0.000733479606631905 2.3862871020965906 3.671149597868101 6.685815671463873 1.1920205877595347 -0.04873873882112357 0.0015741292161608525 8.488421215060555" Properties=species:S:1:pos:R:3:forces:R:3 structure_index=6 total_energy=-45.80986022949219 stress="0.00835045613348484 -9.934081754181534e-05 0.004293910227715969 -9.938974108081311e-05 0.010827543213963509 -9.593220602255315e-05 0.004293926991522312 -9.5852512458805e-05 -0.002231566933915019" pbc="T T T"
Dy       8.42323592       6.15861264       3.98397284       0.00124963      -0.00761147      -0.00012495
Dy       4.75274011       3.90787572       2.79071209      -0.00125460       0.00747608       0.00042019
Tl       4.72855795       1.69156557       7.03470473      -0.00073078      -0.00068433       0.00031215
Tl       8.39971799       3.95890958       8.22962982       0.00044543      -0.02679735      -0.00115166
Te       2.77769880       3.90876920       8.84723726      -0.00669361      -0.00722067       0.01287044
Tl       4.72896482       6.10842051       7.03474146      -0.00120276       0.02747192      -0.00015700
Te      10.34956459       6.15908995       6.41626651       0.00691891       0.00705569      -0.01409955
Te       2.98396904       1.69055631       4.04391424      -0.00348295       0.00023747      -0.02277209
Te       6.47202717       1.69127954      10.02624540       0.00318041       0.00062890       0.02366827
Te       6.67777058       3.90815366       5.22391793       0.00749374      -0.00668359      -0.01440241
Cd       1.07984815       1.69006778       1.59720204       0.00134996      -0.00073856       0.00086424
Te       6.44966815       6.15971816      10.03908450      -0.00727344       0.00686593       0.01457234
8
Lattice="5.152170381574823 -0.0006644854551096624 -0.00021802428569135332 0.0006249486822601923 4.9332438187239545 0.00041174433259734 0.0007294413938703987 -0.0005600966286452442 7.268945360089423" Properties=species:S:1:pos:R:3:forces:R:3 structure_index=7 total_energy=-27.281469345092773 stress="0.02590424381196499 -3.675501648103818e-05 0.0010596750071272254 -3.667198325274512e-05 -0.021923033520579338 -0.00041364997741766274 0.0010597090004011989 -0.00041374852298758924 -0.0031153669115155935" pbc="T T T"
Er       4.60720533       4.63639798       0.50774981      -0.00072912       0.00123076       0.00048727
Er       2.03065239       2.16991096       0.50678143       0.00070722       0.00024011       0.00123464
Cd       2.03151846       2.16824654       4.13979302      -0.00055040       0.00614906       0.00547159
Cd       2.03178920       4.63628050       2.41945342      -0.00226259      -0.00250917      -0.04775720
Er       4.60749911       4.63713135       4.14310860      -0.00003050      -0.00232280      -0.00680766
Au       4.60717535       2.16982177       2.22608639      -0.00033750       0.00047302       0.01728302
Cd       2.03095287       4.63605896       5.86432459       0.00266560      -0.00263223       0.04800794
Au       4.60722254       2.16987484       6.05769983       0.00053727      -0.00062874      -0.01791961
20
Lattice="5.035963830284645 -0.8005099599370006 1.1883342354448958 -4.041921701039958 7.672753989733056 -1.9364365435770154 0.44273501786264724 -0.652784092249999 8.77166765652649" Properties=species:S:1:pos:R:3:forces:R:3 structure_index=8 total_energy=-141.43943786621094 stress="0.0028359047137200832 -0.00040886891656555235 -0.0008026422583498061 -0.0004093371971976012 0.003209092654287815 0.0001851762062869966 -0.0008091768249869347 0.00018583593191578984 0.002335017081350088" pbc="T T T"
P       -0.01131759       2.37505793       3.37493857       0.00414678      -0.02230901      -0.00045541
P       -1.23518039       5.55743113      -0.54293013      -0.01040389       0.01561272       0.01112318
P        3.60101246       0.64194387       0.57357468       0.00674207       0.01489955      -0.00799552
Mn       1.10389111       3.20338399       0.30104488      -0.00610815       0.02036246       0.00726085
O        1.50651279       5.15237053       5.14912200      -0.00482011      -0.02288988      -0.02049957
F        2.01070109       2.88028404       7.21997679      -0.00219166       0.02984406       0.00815183
P        0.04874627       5.45469568       5.44516586       0.00176220      -0.00990936      -0.00261037
F       -0.05005638       0.81818572       3.16161616       0.01185972      -0.02505052      -0.01625560
O       -0.35481294       4.76049650       0.33902765      -0.04115087       0.00579286       0.02857971
O       -0.42287440       4.59070685       6.68939731       0.01960963       0.00615001       0.01087276
O       -2.73361710       5.43058231      -0.37949699      -0.00877112       0.02907410      -0.00030515
O        4.00531063      -0.70729980       7.87722740       0.01956114       0.00187528      -0.00821525
Mn       2.44413004       3.41807217       5.22095550      -0.00320816      -0.02106261      -0.00521204
O        0.79271823       2.57279111       4.67105952      -0.00395066      -0.03631182       0.00080323
O        0.01234941       1.70321666      -0.25813435       0.00093377       0.01730105       0.00038241
O       -0.94074476       7.12903713      -0.39897311       0.00019981       0.02073541       0.00232351
O       -0.94246510       5.27120218       4.32061134      -0.01132756      -0.01559362       0.00667560
O       -1.50442155       2.71245133       3.54159163       0.00135303      -0.02607691       0.00209039
O        2.66918647       1.78111972       0.58424918       0.00999171       0.01712716      -0.02348352
O        0.68037599       3.01026916       2.19911704       0.01577109       0.00042897       0.00676958
8
Lattice="3.784916954801058 0.00029954821909239496 -0.0014543987114708093 -0.00020780280310524394 3.784735439093666 -0.0018181646670224867 0.0018393916071459636 0.002697433299975636 9.103048212725726" Properties=species:S:1:pos:R:3:forces:R:3 structure_index=9 total_energy=-50.5745849609375 stress="-0.044830288738012314 0.0020156491082161665 -0.008776041679084301 0.0020142344292253256 -0.04479334503412247 -0.015332094393670559 -0.008776813745498657 -0.015332932583987713 -0.02291196957230568" pbc="T T T"
Sb       2.87021060       0.35544948       0.65430685      -0.00194450      -0.00228979       0.00119162
O        0.97759883       0.35531935       1.70949989       0.00151527      -0.00097777       0.04892620
Lu       0.97826392       2.24811915       3.07536566       0.00040015       0.00024928      -0.00376775
Br       0.97915468       2.24988933       7.62549739       0.00019708      -0.00061022       0.00023682
Sb       2.87164373       0.35643931       5.49625121       0.00152954       0.00211675      -0.00447118
O        2.87156284       2.24896129       4.44004996      -0.00105012      -0.00240025      -0.04432994
O        2.86990868       2.24764666       1.70871969       0.00196878       0.00296202       0.04426816
O        0.97931990       0.35623995       4.44118541      -0.00261635       0.00095020      -0.04205400
7
Lattice="4.192750754734763 0.0024555156488457845 0.0004201318474527131 -0.023523326777665617 6.193912918655515 -4.4149268735541165 -0.0009146381742552334 -0.04786682611943494 9.013172637726822" Properties=species:S:1:pos:R:3:forces:R:3 structure_index=10 total_energy=-27.53343963623047 stress="-0.00774920079857111 0.0001087049677153118 1.540888774798077e-06 0.00010885534720728174 0.006326339673250914 -0.0021718733478337526 1.5872618632783997e-06 -0.0021714246831834316 0.008023392409086227" pbc="T T T"
I        0.24090811       2.78458912      -0.79841055      -0.00046164       0.01146789       0.00058278
I        0.24178289       2.76273671       3.71987590      -0.00002518      -0.00018103      -0.00203721
Ge       2.33067062       4.66256638       1.49880151      -0.00488625      -0.01056813       0.01193986
Tb       0.23030577       5.85867952      -0.39982692       0.00132727       0.01096450       0.00516634
I        2.32732536       5.89772760      -2.99469674      -0.00091652      -0.01246003      -0.00063888
Tb       0.23015224       5.85406852       3.42266240       0.00041139      -0.00134121      -0.00364184
Ge       2.34650239       0.84746233       5.93948661       0.00455095       0.00211796      -0.01137109
4
Lattice="4.5096669566402365 0.011915792940874925 -0.027726411162322242 -2.2301097373236267 3.746773093065733 -1.2848101447656406 -0.04007589334985322 -0.17554718138533332 7.3476635060724" Properties=species:S:1:pos:R:3:forces:R:3 structure_index=11 total_energy=-13.94510555267334 stress="0.049120694398880005 0.003426140872761607 -0.010419243015348911 0.003426189301535487 0.03139958158135414 -0.021929999813437462 -0.010419332422316074 -0.021930089220404625 -0.013769584707915783" pbc="T T T"
Sb      -0.01649100       2.98498785       1.25920948      -0.00697053       0.02087851       0.03839274
Sb       2.22346591       3.33355587       6.19215386       0.00680570      -0.02139536      -0.04313725
Tl      -0.03622391       1.28167965       4.38048166      -0.00008517      -0.00091796       0.00124162
Au       2.23854113       1.37330408       0.69304830       0.00025000       0.00143479       0.00350290
8
Lattice="5.137298632163624 -0.0007855760748114519 -0.00010541174672149473 0.0008712123737514319 5.137677438502681 -0.000684766672370424 0.0003489451211764665 0.0013780214009485076 10.278823639446555" Properties=species:S:1:pos:R:3:forces:R:3 structure_index=12 total_energy=-37.865997314453125 stress="0.018609022721648216 0.00033081116271205246 3.475746780168265e-06 0.0003308919840492308 0.018550172448158264 -3.6162728065392e-05 3.5640223359223455e-06 -3.622322765295394e-05 0.012765290215611458" pbc="T T T"
La       2.28888353       1.65243105       8.83559918       0.00052744      -0.00150096       0.03608904
La       2.28827219       1.65198904       3.49323210       0.00006794      -0.00175574      -0.03874153
Pr       2.28931080       4.22094872       6.16709780      -0.00075823      -0.00048871      -0.00941279
La       4.85833108       4.22024043       8.83355704      -0.00128660       0.00095161       0.03964395
Nd       4.85729732       1.65133601       6.15999158       0.00028351       0.00051923       0.01271727
La       4.85702065       4.21996336       3.49397491       0.00158951       0.00022609      -0.04088191
Nd       2.28878070       4.21967683       1.02474739       0.00045622       0.00114809      -0.00105834
In       4.85750007       1.65012065       1.02411187      -0.00087978       0.00090040       0.00164430
16
Lattice="8.624365411648988 -0.30769018036647583 1.9383526251372014 1.487598653114082 8.593721423415666 2.037887280863018 -0.3188141001849791 -0.1399384567466504 8.932775500897694" Properties=species:S:1:pos:R:3:forces:R:3 structure_index=13 total_energy=-32.95979690551758 stress="0.0074862828478217125 -0.001755845034494996 -0.002858622232452035 -0.0017559072002768517 0.007058898452669382 -0.0012257646303623915 -0.0028586683329194784 -0.0012257859343662858 0.004725491162389517" pbc="T T T"
Tl       6.43326498       6.09835718       4.12032969      -0.00091377       0.00461816      -0.00094650
Cs       1.96720280       6.16522836       7.61929342      -0.00081848      -0.00025808       0.00000471
Tl       8.24586312       4.11361331       6.91974103       0.03532747      -0.01107249       0.03504770
Tl       3.44118174       0.06288934       4.88926065       0.01247330      -0.00673018      -0.00165791
Rb       2.11811228       6.23671475       3.14975536      -0.00013795      -0.00037314       0.00007057
Cs       1.37279376       1.94049663       2.13466769       0.00037240      -0.00029938       0.00037931
Tl       7.61736679       3.36977476      10.25234515      -0.01241541       0.00678842       0.00030798
Tl       4.30111090       7.91904492      10.26296670      -0.03483420       0.01171425      -0.03439516
Tl       4.45076415       4.36993022      10.54766453       0.01703752       0.00353511       0.01006000
Tl       8.09980557       7.65774462       6.63724293      -0.01532293      -0.00376125      -0.00875569
Rb       5.52968126       1.72021841       7.56662604       0.00049307      -0.00161422      -0.00005707
Hg       6.27596312       6.01740188       8.59537816       0.00040122      -0.00009666      -0.00009636
Tl       7.38717027      -0.12642642      10.17541624       0.03560627       0.02084127       0.01470458
Pb       1.21934345       1.87283354       6.59946989      -0.00002563      -0.00034160      -0.00038872
Tl       3.68104310       3.56073167       4.95171858      -0.03647362      -0.02254752      -0.01369290
Pb       5.68354562       1.77527180       3.09337805      -0.00076928      -0.00040273      -0.00058454
9
Lattice="4.823675421016827 0.010562238665008229 1.626087413856963 2.3996844598102878 7.585447925784189 0.8077964322414267 -0.0077101857995247585 0.007571960164879274 7.99703004655884" Properties=species:S:1:pos:R:3:forces:R:3 structure_index=14 total_energy=-28.124011993408203 stress="0.01287522166967392 0.004087111447006464 0.008640424348413944 0.0040871561504900455 -0.0024093887768685818 0.0021031133364886045 0.008640524931252003 0.0021031394135206938 0.001994424732401967" pbc="T T T"
Tl       3.46617519       1.74776195       7.29061128       0.00119125      -0.02977220       0.00495297
Tl       5.07854845       6.81966325       2.48118397       0.01027719       0.00168939      -0.03184191
Pb       4.27777796       4.26639617       4.86866616       0.00342926      -0.00890866      -0.00682504
Tl       5.87536001       4.32172580       8.10656828      -0.00108518       0.03168732      -0.00595944
Bi       3.45973211       6.82361849       7.28922472      -0.00157187      -0.00281302      -0.00048780
Pb       2.65490151       4.25975472       1.71520492      -0.00279776      -0.01011376       0.01077278
Pb       5.07031835       1.79494890       2.53172098      -0.00286797       0.01105771       0.00496407
Tl       6.67075220       6.82907737       5.72537220      -0.01071822      -0.00732355       0.03281443
Pb       1.86924954       1.78953644       4.05783326       0.00414329       0.01449676      -0.00839006
4
Lattice="4.249717701215241 0.0005116094231519418 -1.5697393872852934 -0.0006479769532604611 4.4915864333571145 -0.0002799282281673236 -0.0010424222361394007 0.0003655840849838037 6.533580572100878" Properties=species:S:1:pos:R:3:forces:R:3 structure_index=15 total_energy=-9.386580467224121 stress="-0.040190357714891434 -1.6875916116987355e-05 0.007195324171334505 -1.684301059867721e-05 -0.04165128618478775 -1.242107100551948e-05 0.007195428945124149 -1.2338659871602431e-05 -0.02362687885761261" pbc="T T T"
Sr       0.43698507       2.62473055       0.21603648       0.01269965      -0.00053864       0.02802584
Sr       3.48196999       0.37889258       1.91697580      -0.00876018       0.00073622      -0.02014057
Li       2.18672929       0.37939566       4.94907272       0.01344248       0.00007889       0.03835192
Cu       1.70106892       2.62498383       3.63439073      -0.01738194      -0.00027647      -0.04623719
18
Lattice="6.239529045232078 -0.010206335047744573 -0.16540306154372825 -0.09899218774994188 7.246449744928321 -0.11436322597385443 0.11823098203720653 -0.09275730914884982 9.472283457360543" Properties=species:S:1:pos:R:3:forces:R:3 structure_index=16 total_energy=-118.59456634521484 stress="0.01234833337366581 -2.3077356672729366e-05 -0.0011447215219959617 -2.3641679945285432e-05 0.014978067949414253 -1.2802483979612589e-05 -0.0011454126797616482 -1.3555089935834985e-05 0.010535446926951408" pbc="T T T"
Er       5.56666812       5.74171074       8.44351095       0.01280814      -0.00344235       0.01770270
Er       4.56426141       2.30796588       5.01679232       0.00441712      -0.00912695       0.02949606
Er       2.49629646       6.80243583       6.82086410       0.01315889       0.00603771      -0.00473356
Er       1.19493203       3.14563813       6.64587713       0.00933761      -0.01782369      -0.01609832
Er       1.23181931       1.28638659       3.73780487       0.00157288      -0.00758645      -0.01897123
Ru       3.69534130       4.31775781       6.89532821       0.00614943      -0.00893295       0.04125587
Er       5.57703824       5.69090781       4.98548065      -0.00274029       0.00785129       0.01866539
Er       2.24437277       4.66915889       3.70663349      -0.00422385       0.00856933      -0.02978901
Ru       3.11290856       2.65973831       1.82720667      -0.00555490       0.00904301      -0.04023479
Er       4.49633779       2.21996908       8.50886523       0.00943435      -0.00865372       0.01621458
Er       1.24127927       1.23561056       0.27977421      -0.01265758       0.00292864      -0.01743841
Ru       6.22953382       0.65611275       6.92393930       0.00232290      -0.00067471       0.01561941
Ir       3.35477555       7.11169389       4.30451724       0.00041375       0.00058776       0.00011775
Ru       0.57865203       6.32117889       1.79991770      -0.00226723       0.00140225      -0.01654625
Er       4.31199993       0.17512159       1.90246882      -0.01293929      -0.00654344       0.00515825
N        0.28458403       3.49360648       4.44432149      -0.00048217       0.00001919       0.00018353
Er       5.61355392       3.83164737       2.07747725      -0.00982107       0.01754699       0.01627630
Er       2.31155460       4.75768850       0.21455647      -0.00892887       0.00879806      -0.01687819
7
Lattice="3.821386367640411 -0.00011908105345148081 1.2674478329462264 1.6979678022972695 3.4264966268780066 1.2720766347494026 0.011778451751943825 0.012825815344184168 6.365742638294966" Properties=species:S:1:pos:R:3:forces:R:3 structure_index=17 total_energy=-39.303096771240234 stress="0.07009654492139816 0.0041552516631782055 0.0008274252759292722 0.004155812785029411 0.06249929964542389 -0.004545961506664753 0.0008297119056805968 -0.004544803872704506 0.061400942504405975" pbc="T T T"
Ni       3.14699245       2.81910515       7.70114944       0.01473799       0.00850610      -0.04667573
Ni       2.21275099       2.23698802       4.12196095      -0.01474344      -0.00750617       0.04280245
Ni       3.74137840       0.81472605       5.90775696       0.00037168      -0.00039531       0.00376537
Ni       0.68510659       1.28796270       2.33356399       0.00367031       0.00389376      -0.01792018
Ni       2.96540319       0.32967314       1.84969862      -0.00343096      -0.00543435       0.02013940
Ge       1.41504328       1.74298241       6.52890918       0.00537252       0.00041032      -0.02434478
Ge       3.94523696       3.31337231       5.29242348      -0.00597803       0.00052563       0.02223323
14
Lattice="7.259115420529235 -0.0027427516466704905 4.19409296869423 2.419385594840318 6.842901609196818 4.198759799634092 -0.005185770059033577 -0.004327722269648111 8.384311399197713" Properties=species:S:1:pos:R:3:forces:R:3 structure_index=18 total_energy=-74.94789123535156 stress="0.0030455554369837046 0.0027767368592321873 -4.6927139919716865e-05 0.002776391338557005 -9.730278543429449e-05 -0.001370087033137679 -4.699517012340948e-05 -0.0013697495451197028 -0.0018064657924696803" pbc="T T T"
La       3.03836410       1.76503966       8.94814937      -0.00478929      -0.00842221      -0.01131131
La       6.66572654       1.76144291      11.04497929       0.01303525       0.00004359       0.00012578
La       3.03945100       1.76532732       4.75530497      -0.00075245       0.00065923       0.00429565
S        5.39968720       3.43472881       9.04974035       0.02368601       0.01229393      -0.03058933
Hg       6.66751380       4.32968740       6.85480406       0.00389680       0.00196482      -0.00121917
Hg       9.08498703       6.04141972      11.04502519       0.00432668      -0.00203891       0.00231915
La       4.24693816       5.18451636      11.04594532       0.00220688       0.00725294       0.00398959
S        5.40392721       3.43459888       4.65844015       0.01397922       0.01485000       0.02441669