11
Lattice="3.224517121056524 -0.006437282800511945 0.033272352617975606 -1.607072585271104 2.7956296774799245 0.020006950332693417 -0.0788305658889735 -0.14600964152530327 45.415263835209814" Properties=species:S:1:pos:R:3:forces:R:3 structure_index=0 total_energy=-69.5360336303711 stress="-0.013204936869442463 -4.673726380133303e-06 5.789960050606169e-05 -4.636869107343955e-06 -0.013164236210286617 0.00016827356012072414 5.89661140111275e-05 0.00017019349616020918 -0.018458202481269836" pbc="T T T"
S        1.87552944       1.39054102      34.50401467      -0.00036290      -0.00015035      -0.00056219
Mo       0.36379825       0.59114207      24.37942040       0.00005641       0.00025116      -0.00781739
W        0.24538654       0.44247752      36.03615070      -0.00008602       0.00010664      -0.00687932
Se       0.16852775       0.35629154      42.29353894       0.00001197       0.00005216       0.00036150
S        0.30090780       0.51945326      30.24951275       0.00008850      -0.00095749       0.03671505
S        0.21346850       0.45936895       0.15611759       0.00004780       0.00022632      -0.01708239
W        1.76466176       1.26126205      44.04862550       0.00022671       0.00017669      -0.00921330
S        1.84320607       1.34958486      37.62588745       0.00035607       0.00039819      -0.01345518
Te       1.99811440       1.54450340      22.44545948      -0.00014754      -0.00037699       0.00149055
Se       1.78365455       1.31162451       4.08930669      -0.00028650      -0.00045516       0.02593420
Se       1.96016240       1.49639716      26.11000276       0.00009556       0.00072893      -0.00949149
7
Lattice="4.009598681360149 -0.21656981037435033 -0.1096043774802154 -1.106372713760132 3.8566662518612005 0.1797622732041351 -0.14416656738067424 -0.020938718880113043 6.821808244469484" Properties=species:S:1:pos:R:3:forces:R:3 structure_index=1 total_energy=-38.92588806152344 stress="-0.012119238264858723 0.017872828990221024 0.002516572130843997 0.017872540280222893 -0.015387964434921741 -0.009597509168088436 0.002515353262424469 -0.009598641656339169 0.016032356768846512" pbc="T T T"
Sr      -0.35362621       3.12205893       4.12623813      -0.00386294      -0.00571290       0.01021272
Sr       1.69337612       1.55372138       0.38795722      -0.00135243       0.00886063       0.00683998
O        1.68460879       3.61312050       2.26784444       0.00433361       0.00392525       0.00578488
O       -0.34002608       3.04966003       6.65395676       0.02404054      -0.01093743       0.01568305
O        2.65499645       0.71100295       5.00532421      -0.02190874       0.00691815      -0.00691906
O       -0.34776278       1.06217366       2.22061749      -0.00219416      -0.00209604       0.00156958
O        1.63435878       1.52848735       4.51065603       0.00094409      -0.00095773      -0.03317107
16
Lattice="3.910205688342771 0.0033241691344477625 -0.493443259008028 0.046516089420730655 5.48877138731971 0.2595880080925091 0.1091383995792669 -0.02748528804436919 9.452142525493125" Properties=species:S:1:pos:R:3:forces:R:3 structure_index=2 total_energy=-87.6930923461914 stress="-0.027237940579652786 -0.0020778391044586897 -0.00039829895831644535 -0.0020777450408786535 -0.03193182870745659 0.004210685379803181 -0.00039875865331850946 0.004212142433971167 -0.03545200452208519" pbc="T T T"
O        2.08186333       0.77635605       2.68190047      -0.00009351      -0.00006819      -0.00010338
Sr       1.63158585       0.73490975       0.02852832       0.04190335      -0.00634112       0.02550371
O        1.80006179       3.41101196       9.36903812       0.02055068      -0.02569103      -0.00706312
Cu       0.49826759       3.45007451       5.70172571      -0.01783085       0.01242229       0.00936657
Cu       3.70912733       3.58999382      -0.07608678       0.01741275      -0.01205185      -0.00961518
O        2.51680650       3.60293311       5.70866636      -0.02091717       0.02483825       0.00667036
Sr       2.52495374       0.81714195       5.33242682      -0.03653114       0.00770001      -0.02224496
Sr       2.10783833       3.52170742       2.81267528      -0.00244451      -0.00307424       0.00034795
O        3.77810209       1.97506203       0.85001068       0.03372841       0.01658918       0.02591238
O        0.97692860       2.13305865       7.06192779      -0.02614842       0.01084022      -0.01148563
O        3.94404457       4.82719077       1.44075520      -0.00894714       0.00941986      -0.02220821
O        3.34014446       4.88014090       8.01663843       0.02717423      -0.00955248       0.00897598
O        0.42613961       5.06298422       4.77196905      -0.03022321      -0.01481687      -0.02216002
O        0.27228832       2.21088895       4.18475170       0.00092852      -0.00835800       0.01846936
Cu       0.12663674       0.77446348       2.92820888       0.00005404      -0.00180060       0.00048386
Cu       2.15846059       3.50676435       7.53887487       0.00138422      -0.00005521      -0.00085009
8
Lattice="3.8982323849123035 -0.005559239737562486 -0.00797325150814908 -1.9447681367191083 3.3775570479681565 -0.0011727833531564034 0.019657789548652816 0.014117892898137854 9.756193026301641" Properties=species:S:1:pos:R:3:forces:R:3 structure_index=3 total_energy=-69.82645416259766 stress="-0.011703095398843288 -0.000957967306021601 0.0003130273544229567 -0.0009598639444448054 -0.0165011715143919 -0.0007777938153594732 0.00031063950154930353 -0.0007759406580589712 -0.001316942973062396" pbc="T T T"
O        3.01658902       1.40310946       1.34531887      -0.00639462       0.00185037       0.02350926
Ce       1.06695068       0.28313117       2.31139344       0.00029628      -0.00383119       0.01807256
Ce       3.03020154       1.41338382       8.85022333      -0.00281053       0.01063451       0.00284725
Ce       1.07672109       2.53700456       5.38109896      -0.00328071      -0.00091905      -0.00082725
O        1.07951838       0.29362205       9.17786913       0.00583801      -0.01076050      -0.03516656
O        3.02608698       1.41050944       6.58036552       0.00081901      -0.00050505       0.00178790
O        1.07099165       2.53350146       3.08241803       0.00500095       0.00152314       0.00849798
O        1.07195637       0.28561824       4.71080926       0.00053138       0.00200781      -0.01872137
4
Lattice="4.268643856048584 0.0 2.463345766067505 1.4227163791656494 4.02522087097168 2.4616942405700684 0.0 0.0 4.928268909454346" Properties=species:S:1:pos:R:3:forces:R:3 structure_index=4 total_energy=-10.680160522460938 stress="-0.07758257538080215 -0.0005015921778976917 -0.022936448454856873 -0.0005016581853851676 -0.03374536707997322 -0.021201549097895622 -0.022935783490538597 -0.021201347932219505 -0.08096460998058319" pbc="T T T"
Yb       5.24604863       2.82289637       5.55858191      -0.01257360       0.00592977      -0.00368478
Li       3.81912904       1.82042943       3.09548186       0.00629275      -0.00830350      -0.00088942
Li       2.39689313       3.82928485       5.55532758       0.00542656       0.00084368       0.00848776
Pb       2.39756881       0.81101278       5.56068924       0.00085432       0.00153009      -0.00391355
8
Lattice="2.996375061182417 0.008793738026215497 -0.011222195117755226 -0.012539961973392128 4.238045364433309 -0.008084380161592283 0.023003806661707704 0.011413575437137837 5.99275972821211" Properties=species:S:1:pos:R:3:forces:R:3 structure_index=5 total_energy=-43.44361877441406 stress="-0.03280235826969147 -0.0017294535646215081 0.00866920966655016 -0.0017294613644480705 -0.01438131369650364 -0.0014953837962821126 0.008668194524943829 -0.0014942033449187875 -0.03313949331641197" pbc="T T T"
O        1.72165435       2.43184339       2.59452045       0.00315984      -0.01306716      -0.00580856
Ni       0.21711885       2.42277294       1.10094981       0.01269722       0.00725906       0.00060838
Mg       1.74052534       0.31832326       5.59339424      -0.00304222      -0.00668987       0.00612948
Mg       1.73056588       0.31138861       2.59776119      -0.01301157       0.00823014      -0.00751459
Ni       0.23041102       2.43117935       4.09712869      -0.00123169      -0.01671409       0.00760563
O        1.73518543       2.43651005       5.59103431      -0.00900834       0.00118826      -0.01157210
O        0.22538867       0.30375999       1.10401200      -0.00033675       0.00765733       0.01238103
O        0.23550754       0.30982839       4.10125385       0.01077339       0.01213629      -0.00182950
10
Lattice="4.999656329236334 -0.08124368979138563 -0.42146373640281815 -1.1344913353171013 4.898212204660525 -0.8102066764146788 -0.13269766291666638 0.0295071488535335 5.380772406621751" Properties=species:S:1:pos:R:3:forces:R:3 structure_index=6 total_energy=-69.51605224609375 stress="0.03761044517159462 0.00438182195648551 0.002914035227149725 0.004378017038106918 0.042396485805511475 0.00875013042241335 0.0029130883049219847 0.008747144602239132 0.03584578260779381" pbc="T T T"
Os       3.04931663       1.71074397       0.05673188       0.01425838      -0.00473499      -0.00752860
Os      -0.73500905       4.83848166       4.15297335      -0.01080340       0.00510133       0.01205069
Cu       1.54209857       4.28964177       1.71400476      -0.03068855       0.00766733      -0.01424975
O        2.55749770       2.64724841       1.49063599       0.02883863       0.02325946      -0.03011888
O        3.70595056       0.44921621       3.85590394      -0.00737196      -0.02537487       0.00164366
O        1.01255984       4.91855179      -0.11027921      -0.00676507      -0.00026664       0.01035422
O        4.67111771       0.97126450       0.61733791       0.01909375       0.02889511       0.00675982
O       -0.12733774       4.05724341       2.66684850      -0.01746964      -0.02738929       0.03396368
O        3.75075091       3.17233692      -0.85153413       0.01028034      -0.01156001      -0.00719214
O        1.32950603       1.61121383       4.43401829       0.00062662       0.00440317      -0.00568247
6
Lattice="3.3752033669615362 -0.013008212803237077 -0.8410400140806387 -0.4768278830846016 4.941127278844425 -1.9901841708307735 0.048033519554810084 0.0861602398551263 7.383225197947386" Properties=species:S:1:pos:R:3:forces:R:3 structure_index=7 total_energy=-46.03880310058594 stress="-0.010820039547979832 -0.0006435918621718884 -0.002845745999366045 -0.0006446865736506879 -0.002525448566302657 -0.0046893018297851086 -0.0028475013095885515 -0.0046881502494215965 -0.02108018286526203" pbc="T T T"
Zr       1.08827411       4.40698940      -1.92919915      -0.00652427      -0.02050338      -0.02369022
Zr       0.47115788       3.35368768       2.80169287       0.00330852       0.02033838       0.02512568
Zr       2.72917420       1.45092550       4.70140975       0.00125076      -0.01335566       0.00302419
Te       1.55127732       2.32037398      -0.03319454       0.01176980       0.00663966       0.02289879
C        2.49120739       3.91615344       3.70726053       0.00140855       0.00807076       0.00237111
Te       0.48435628       0.49891964       2.89749767      -0.01121362      -0.00118962      -0.02972978
10
Lattice="4.444928968358322 0.007006313054728432 -0.0027281952890286635 -2.2280344200963444 3.8460571437354605 0.0019370944185594298 0.00889938872767733 -0.0021468096433340327 14.308536936574162" Properties=species:S:1:pos:R:3:forces:R:3 structure_index=8 total_energy=-46.159507751464844 stress="-0.0008652681135572493 6.222394586075097e-05 1.5535493730567396e-05 6.207036494743079e-05 -0.0007896404713392258 -2.519771669540205e-06 1.5197249012999237e-05 -2.0891950498480583e-06 0.0032940732780843973" pbc="T T T"
Ce       3.21978883       0.61500858      11.23184701      -0.00034360       0.00006537       0.01242657
Ga      -1.22753399       3.17416790      13.07411640       0.00187623      -0.00174985      -0.00126649
Ga       0.99388263       1.89503780       9.60925658       0.00036981      -0.00012393      -0.01076454
Ce      -1.23372168       3.17568747       4.09523105       0.00006429      -0.00038167      -0.00641419
Ga       0.99745821       1.89408153      13.38793249      -0.00290689       0.00219232       0.02461822
Ce      -1.23173077       3.17497964       8.05138134       0.00031978       0.00029869       0.00740051
Ga       0.99021650       1.89607897       2.47770522      -0.00065816      -0.00000575      -0.03749051
Ce       3.21381947       0.61648279       0.90722891      -0.00003886      -0.00007309      -0.00302951
Ga       0.99128302       1.89575647       6.15722130       0.00174333      -0.00112552       0.04885172
Ga       3.21572544       0.61592587       5.98533119      -0.00042594       0.00090344      -0.03433174
4
Lattice="3.1844178939812764 -0.0008733291178262821 0.0016848300357706766 0.0019360282386266224 5.186342709629622 0.003149135790972526 -0.0032878943825582095 -0.0025294410747730375 5.519576749532432" Properties=species:S:1:pos:R:3:forces:R:3 structure_index=9 total_energy=-5.990086078643799 stress="-0.0004189592436887324 0.0015534042613580823 0.0018808330642059445 0.0015534210251644254 -0.045885734260082245 0.002333670621737838 0.0018808281747624278 0.002333670621737838 0.011146261356770992" pbc="T T T"
Mg       1.00733371       4.34067129       5.30634717      -0.00168654      -0.01095675       0.00291005
Mg       1.00700402       1.74279137       1.62229509       0.00046239       0.01110376       0.00426046
Mg       2.60034728       4.33795275       2.54933279       0.00017361      -0.00495162      -0.00649668
Mg       2.59763269       1.74472292       4.38396340       0.00105054       0.00480461      -0.00067382
7
Lattice="4.744650534502818 -0.010092475249768149 2.4505046157183945 1.7448790347456609 4.408046676123381 2.4573743013411766 -0.1219886171368691 -0.09288387002913 6.056745959889231" Properties=species:S:1:pos:R:3:forces:R:3 structure_index=10 total_energy=-36.29518127441406 stress="-0.038153328001499176 -0.007866738364100456 0.011662539094686508 -0.007867403328418732 -0.03438151255249977 0.00244313245639205 0.011662288568913937 0.002443109406158328 -0.03989263251423836" pbc="T T T"
Co       3.99913637       3.24626198       6.87627646      -0.00166560      -0.00548088      -0.00219528
Co       1.62237832       3.24920933       5.65575042       0.00209509       0.00200984       0.00245905
Sn       4.22586331       0.17479261       3.52284344       0.01833040       0.01013054      -0.03604276
Sn       2.03203309       1.90550257       7.77830217      -0.01755241      -0.01223421       0.03506470
Sn       4.05834051       3.28852229       3.85534845       0.00406044       0.00226097       0.00199401
Sn       0.75394542       1.04543505       4.42509227      -0.00180170       0.00137502       0.00123045
Co       3.12719184       1.04149787       5.64916989      -0.00346619       0.00193870      -0.00251006
10
Lattice="3.9614520890193488 -0.03646044321942698 0.0397177995716084 0.03712588699990706 3.9614874976666314 0.02607610075782025 -0.08730802377748352 -0.056050253290207824 8.715016843328495" Properties=species:S:1:pos:R:3:forces:R:3 structure_index=11 total_energy=-64.65959930419922 stress="0.051611319184303284 0.017752986401319504 0.005128363147377968 0.017752384766936302 0.0490117073059082 0.004334449768066406 0.005126054398715496 0.0043344018049538136 0.024818699806928635" pbc="T T T"
Ba       2.25335692       0.26423548       2.33371236      -0.00935412       0.00081751       0.01417795
O        2.25305997       2.23449135       4.25833683      -0.03370293      -0.00411417      -0.00656084
O        0.24426593       2.23316932       6.66963470       0.00246639       0.00478053       0.04592794
Ba       2.21261828       0.23978071       6.15796425      -0.00022750       0.00019542      -0.02297756
O        0.25239878       0.27154390       4.22491588       0.00203558       0.00937233      -0.00408783
O        0.20643200       0.23975126       8.58143600      -0.00162552      -0.00003894      -0.00084328
Ni       0.26972039       2.25340476       4.23829262       0.03056710      -0.02170867       0.00936630
O        0.29442740       2.26441534       1.80203435      -0.00071892       0.00482170      -0.01530132
Os       0.22457459       2.22057801       8.59436738       0.01034351       0.00006465      -0.02847474
O        2.20573740       2.20132698       8.61268833       0.00021623       0.00580978       0.00877400
12
Lattice="5.8383449300436725 0.016131996395736155 3.369237466178768 1.9329895803344812 6.289641221906547 3.3594069972496734 -0.003507850198174474 0.01785947101126639 6.739841178694006" Properties=species:S:1:pos:R:3:forces:R:3 structure_index=12 total_energy=-67.01519775390625 stress="-0.009371934458613396 -0.000584689318202436 -0.00036489966441877186 -0.0005864903796464205 -0.02127864584326744 0.0010295172687619925 -0.000365175015758723 0.0010308208875358105 -0.009431179612874985" pbc="T T T"
S        1.98528738       2.16652333       2.29769718      -0.01331518       0.01538008      -0.00381507
S        5.32195716       2.19235894       4.21822664       0.01104173       0.00433415       0.01567264
Cr       1.41693913       3.54486988       4.18469248       0.00065267       0.00994339       0.00572264
S        3.25184938       4.75883723       3.94993363      -0.01234698      -0.02682185       0.02788007
Cr       1.40939155       3.53499053       7.14010678       0.00900677       0.03846142      -0.00873083
S        3.24304892       4.76267948       7.37149589      -0.00073034      -0.02101129      -0.02171975
Cr       3.97061302       3.56025627       5.66759436       0.00440258      -0.01177239      -0.01016696
S        6.15762725       4.72819224       5.65878973      -0.00151102       0.02142644       0.00343769
S        5.33196296       2.19840654       7.09980471      -0.00127026       0.00061399      -0.00951929
Cd       4.21736402       1.00201136       9.02912474      -0.00175046      -0.03994492       0.00367538
S        6.14009481       4.77276739       9.02864258       0.00590438      -0.02111477      -0.00218561
S        2.27361796       2.00133393       5.66265104      -0.00008423       0.03050590      -0.00025082
4
Lattice="3.582289878094449 0.020926096433163222 -1.5379139555331445 -0.6795513905607309 3.5173361299005177 -1.546827654804281 -0.016798489009376475 -0.01184736304739594 4.900654880221875" Properties=species:S:1:pos:R:3:forces:R:3 structure_index=13 total_energy=-12.218650817871094 stress="-0.0820889100432396 0.09122402966022491 0.01790350116789341 0.09122426062822342 -0.022376947104930878 0.009647420607507229 0.017903758212924004 0.009648344479501247 -0.046941861510276794" pbc="T T T"
Zn       2.64283110       2.76386782      -0.64901609       0.00741868      -0.00302211       0.00672067
Ti       2.24992587       0.11470517       3.34888599       0.00153904      -0.00325517      -0.01132151
Zn       1.19392635       0.99446424       0.89488893      -0.00653266       0.00222037       0.00212698
Zn       0.11818539       1.86043412       3.34038452      -0.00242496       0.00405697       0.00247387
10
Lattice="5.206396551868098 -0.06663388819238002 -1.3780657582511109 -2.6179211104373263 5.864683018963263 0.2669792837537736 -0.08432705809820266 -0.13868094401947 9.963286305937539" Properties=species:S:1:pos:R:3:forces:R:3 structure_index=14 total_energy=-37.30897521972656 stress="0.0019825370982289314 0.004807306919246912 -0.0001455024175811559 0.004806223791092634 -0.011503471992909908 0.02340497262775898 -0.00014520545664709061 0.02340487390756607 0.010412486270070076" pbc="T T T"
Cl       2.36413696       0.06898602       1.03254069       0.01556265       0.00278115       0.00246475
Fe       2.31786095       1.19041032       5.37921463      -0.01007091       0.02060312      -0.00339481
Cl       1.95002511       4.48079166       8.50077778      -0.01245981      -0.00962976      -0.00330603
Cl       3.61734095       2.87118084       5.44072613       0.01832527       0.00299120       0.00609739
Cl      -0.51043036       2.55651846       0.52907828       0.00755835      -0.00944948       0.00410578
Cl       2.88067281       3.82108776       1.80707366       0.00258029      -0.01669075       0.00951314
Fe      -1.56293888       4.26081236       1.23790689      -0.00848531       0.01990692      -0.02101701
Cl       1.56269283       0.81941073       7.33137226       0.00194979      -0.00518148      -0.00098944
Cl       0.70251268       1.61005728       4.06327008      -0.01483423       0.00242758      -0.00027108
Cl       0.76239312       5.35600729       4.93938119      -0.00012612      -0.00775850       0.00679675
20
Lattice="5.249940929349605 -0.1372220391547745 0.9149183926194621 0.4244100284659351 5.629740132840388 0.2823002191353748 -0.45864718708382796 0.24482057489101974 10.692636940529171" Properties=species:S:1:pos:R:3:forces:R:3 structure_index=15 total_energy=-153.09661865234375 stress="-0.023771775886416435 -0.005911529064178467 -0.003694410901516676 -0.005910832434892654 -0.0238958653062582 0.0002848906151484698 -0.0036947177723050117 0.00028187604038976133 -0.021359136328101158" pbc="T T T"
Ca       3.90900943       3.61490587       8.68611389      -0.00106488       0.02006357      -0.00196163
Re       0.88111637       0.86136511       8.70398328      -0.00216508       0.01370829       0.00352085
O        4.22436044       3.71048499       6.44021540      -0.01436365      -0.00165236       0.00224185
Ca       0.65717252       2.21149456       5.09118387      -0.01643780      -0.00347327       0.00256967
O        0.53111882       5.14319979       8.08246342       0.01152217      -0.00296009       0.00541854
O        2.42963307       3.67830088       4.66025489      -0.00541794      -0.01926851      -0.00582892
O        2.31606032       1.97930141       9.04756924      -0.00459385       0.02340525      -0.02949511
Re       0.73760968       3.49733614       1.49712887       0.00898853       0.00119210       0.00642183
O        5.14751259       2.88219887       3.86809582       0.00968277      -0.03224933       0.00170612
O        0.34272444       2.05438043       7.40854874      -0.02385861       0.00007069      -0.00018322
O       -0.27492530       1.18438062      10.00306178      -0.00363249       0.01641957       0.00654322
O        4.85190634       0.16631377       5.17070520      -0.00671792      -0.00634468       0.00417620
O        1.58658803       4.99480901       1.75353419       0.00372154       0.01166809       0.02363726
O        2.21978049       0.51417317       5.60780318      -0.02000916       0.00306723      -0.03292242
Ca       3.22340356       0.24452470       0.79530771       0.00518750      -0.01633056       0.01731496
O        3.46844523      -0.24650999       3.05743964       0.02363892      -0.03950194      -0.00495780
O        1.94489470       2.27018817       1.16959374       0.02480793       0.01652730      -0.01181871
Re       3.68181565       4.95161170       5.11443709      -0.00572097      -0.01336944      -0.00701708
O        2.49138879       5.19871253       9.70677199       0.00450122       0.01956189       0.01515386
O        4.39838217       3.81253120      11.76141695       0.01193237       0.00946519       0.00548077
5
Lattice="4.212527452879743 -0.000725540418010635 0.0011593109378476754 -2.1033113830766683 5.0163990821362425 -2.1085427531597793 -0.001150916596122562 -0.0006150090452025815 4.212947743476951" Properties=species:S:1:pos:R:3:forces:R:3 structure_index=16 total_energy=-31.642414093017578 stress="0.07178758084774017 0.002460996387526393 -0.00027989502996206284 0.0024627360980957747 0.013357704505324364 -0.004404349252581596 -0.00027990591479465365 -0.004405130632221699 0.07288125157356262" pbc="T T T"
Ce       2.97481737       0.63200425       1.06467419      -0.00860726       0.00953531       0.00195512
Si      -1.23691925       4.47348669       1.06338409       0.00765826       0.03620791      -0.01127952
Si       0.86601196       1.81088635       3.17016536       0.00510392      -0.04499555       0.00549927
Pd       0.87048574       3.14103705       1.06477619      -0.01285973       0.00183645      -0.00998654
Pd      -1.23890201       3.14288581      -1.04508141       0.00870482      -0.00258417       0.01381168
4
Lattice="3.938641796435148 -0.0006750965144104762 2.27497845963772 1.3142686145077942 3.71334217635409 2.276604219349231 0.0002805015217049829 8.046415064947501e-05 4.550758387228904" Properties=species:S:1:pos:R:3:forces:R:3 structure_index=17 total_energy=-27.37530517578125 stress="-0.11032604426145554 0.006650872062891722 -0.003264455357566476 0.006649801507592201 -0.0998300313949585 0.0006260134978219867 -0.003264246741309762 0.000627082830760628 -0.08540839701890945" pbc="T T T"
Al       0.71177095       0.95769114       2.84582661       0.00003079       0.00328890       0.00052645
Pd       2.02700334       1.88778123       5.12385050      -0.00486794      -0.00401785      -0.01112954
Hf       3.33775666       2.81444969       7.39589172       0.01047383       0.00393113       0.02059966
Pd       3.33695085       0.02936085       2.84653694      -0.00563666      -0.00320207      -0.00999656
12
Lattice="3.907922516827775 0.004358982059000117 -0.007653052315606555 -0.012945980398109687 5.467564739887551 -0.005703242608042072 0.034762567257519986 0.10142129168224362 14.049771431259204" Properties=species:S:1:pos:R:3:forces:R:3 structure_index=18 total_energy=-50.52596664428711 stress="0.015435312874615192 -0.00036930706119164824 7.398699381155893e-05 -0.0003695860505104065 0.020551210269331932 0.001347092678770423 7.355456909863278e-05 0.0013482419308274984 0.015575881116092205" pbc="T T T"
Co       1.21883621       0.54600446      13.78356780      -0.00320453       0.02831137       0.00267395
Te       3.13693514       4.20607935       5.17961360      -0.00212124       0.01221544       0.02870703
Co       3.13569426       3.18257473       2.72013057      -0.00098039       0.04406325       0.02425405
Te       1.20747889       1.91214584      11.56802849       0.00046771      -0.02889526      -0.00629288
Te       3.13740659       1.92862596       0.53301238      -0.00431904       0.01209121       0.02964756
Te       1.18872388       3.75075778       8.62311074       0.00490243      -0.01006338      -0.04348068
Co       1.18566714       2.85743193       6.18799995       0.00152963      -0.04284894      -0.02460703
Te       3.14247893       1.39224681       6.92070993       0.00357248       0.00080377       0.00889289
Te       1.18454261       1.83532788       3.76286211       0.00255179       0.00873876      -0.00796415
Te       1.17859700       4.69114363       1.99230020      -0.00235081      -0.00577495      -0.01304041
Te       3.15952664       4.56885821      12.85203900      -0.00077859       0.01088616       0.00418383
Te       3.15789746       0.24777850       9.95451163       0.00073054      -0.02952723      -0.00297412
12
Lattice="4.381933624983364 0.11663800274930748 0.22882562922299654 -2.137748143771172 5.105691543461479 -0.7098124453917104 0.6824714397253542 0.4664188747084943 11.575609414841914" Properties=species:S:1:pos:R:3:forces:R:3 structure_index=19 total_energy=-96.13651275634766 stress="-0.01829809509217739 0.00014363696391228586 0.0031906033400446177 0.00014342302165459841 -0.02583257667720318 -0.00021622134954668581 0.0031882543116807938 -0.000212464714422822 -0.029599903151392937" pbc="T T T"
O        0.33734685       3.10244598       5.92520607       0.00960720       0.00023305      -0.03064919
O        0.74937725       2.72963945       3.37389043       0.00161916      -0.00510156      -0.00744700
O        2.57554537       0.22488375       4.02471514      -0.00013089      -0.00488365      -0.01823616
Re       0.94898576       4.29195381       4.79519396       0.00975633      -0.00301009      -0.03221607
O        3.05071312       0.55815747       6.57899427       0.02184898       0.00122261      -0.04028344
O        3.22883082       4.93902751      10.01707119      -0.01821141       0.00585559       0.04113339
Tb       3.01254761       2.20140044       3.15763988      -0.00040177      -0.00386828      -0.00093874
O        0.29296035       4.58857013      -0.04598299      -0.00673664       0.00381755       0.03540790
O        0.07259140       0.83938536       1.36576056      -0.00836711       0.00523706       0.02299808
O        2.71927596       4.01256483       4.61596968       0.01221257      -0.00380722      -0.02718748
Re      -1.43768713       4.48083535      -0.10822986      -0.01140964       0.00421032       0.03133157
O        2.54284531       3.12445217       1.02915142      -0.00978710       0.00009534       0.02608742
10
Lattice="5.2180062546469435 -0.00360490318963922 -3.0233071621009664 -1.7375739720180343 4.935516242696085 -2.9745585010907445 -0.005959824633712775 -0.013142788315069154 6.028347168222171" Properties=species:S:1:pos:R:3:forces:R:3 structure_index=20 total_energy=-86.01954650878906 stress="0.014122607186436653 -0.0005737866158597171 -0.0006137951277196407 -0.0005758371553383768 0.015029818750917912 0.0013543454697355628 -0.0006139199249446392 0.0013559411745518446 0.014548739418387413" pbc="T T T"
Ba      -1.49245263       4.53080356       1.70808080       0.00144529      -0.00488990      -0.00205580
O       -0.62949056       2.07422291       3.39628435       0.01851057       0.01156214      -0.02667150
Re       0.25369458       3.30093068      -1.32703577      -0.00019806      -0.00003364      -0.00037801
O       -0.61406768       2.32195519       0.16480730       0.01192318      -0.04218984      -0.02101931
Gd       3.73149833       0.83138052      -1.35136592      -0.00042085       0.00007667      -0.00067173
Ba       1.99374432       2.05807798       1.66607434      -0.00091952       0.00430578       0.00250860