6
Lattice="2.9268866844393444 -0.0028309078438544643 0.03455769731828751 0.010844580186977903 4.713902494012243 0.13661073085142753 -0.05965626442568389 -0.057224171385183965 5.0682282803082135" Properties=species:S:1:pos:R:3:forces:R:3 structure_index=0 total_energy=-42.681392669677734 stress="-0.0693039745092392 0.00032455651671625674 0.003605218604207039 0.00032562960404902697 -0.08671456575393677 0.00770301278680563 0.003605589969083667 0.007704487070441246 -0.07519780844449997" pbc="T T T"
Mn       1.05223899       2.91731111       4.87859618      -0.00145828       0.02519689       0.00669517
O        2.52628818       3.88871899       4.06239284       0.00341397      -0.04217775       0.00156292
Mn       2.54642656       2.94541562       2.36231519      -0.01554906       0.00522444      -0.00460444
O        2.56433259       2.00284347       0.66115635       0.00403424       0.02139358       0.00685513
O        1.07139072       1.97622520       3.17929575       0.00372707       0.01799074      -0.01072066
O        1.09273600       3.91730052       1.51099651       0.00583213      -0.02762783       0.00021168
6
Lattice="3.3680129031440544 -0.023061537587537692 -0.9002014328012784 -0.6861286036188116 5.356828933490975 -2.701908245224781 0.005253211475379671 0.017850256619034194 6.774289955156439" Properties=species:S:1:pos:R:3:forces:R:3 structure_index=1 total_energy=-29.858192443847656 stress="0.006546636112034321 -0.008458881638944149 -0.007619858253747225 -0.008458442986011505 0.002308068796992302 -0.019241081550717354 -0.007619675248861313 -0.01924147643148899 -0.026904664933681488" pbc="T T T"
Co       2.00378789       3.48176790       1.65082086      -0.00802986       0.02220140      -0.00185135
Se      -0.08499092       3.80986903       0.57933049      -0.00163268      -0.00230050       0.00547421
Se       2.74578727       0.48977086       4.51120629       0.00097649      -0.01352692       0.01253432
Co       0.65644636       0.81635824       3.44070951       0.01553453      -0.00548667       0.02977830
Se       1.93751905       1.12201692       1.47443314      -0.00116737      -0.00452465      -0.01652056
Se       0.72375510       3.17816242       3.62408957      -0.00568117       0.00363711      -0.02941513
8
Lattice="5.555177715573 -0.0041721592976452625 -2.4680451517872144 -1.0982719687452076 5.444746356358533 -2.47206930196681 -0.10281180759939028 -0.12214543841130017 7.246261872197011" Properties=species:S:1:pos:R:3:forces:R:3 structure_index=2 total_energy=-29.8547306060791 stress="-0.015493839979171753 0.0010552327148616314 0.004862787202000618 0.0010554153705015779 -0.01365592796355486 0.006190745625644922 0.004863296169787645 0.0061911591328680515 -0.007368519902229309" pbc="T T T"
Cu       3.64128207       0.31758666       0.87372030       0.00199073      -0.00376550       0.00854288
In       1.92218012       1.61926280       4.49856530       0.00376278       0.00472494      -0.00267592
In       4.15422880       4.33725059       2.02561401       0.00489159       0.01011480       0.00503685
Se       1.59335076       0.98600728      -0.23350570      -0.03128988      -0.00143224      -0.02605355
Se       3.60261982       3.88512021      -2.70728834      -0.00566715      -0.01967695      -0.01152033
Se      -0.38043274       2.19812510       3.29454281       0.02341561       0.00785598       0.02073324
Se       1.99540506       5.09691644       0.67034815       0.00727949       0.01196495       0.00479436
Ag       0.31606066       3.04616170       0.86898720      -0.00438312      -0.00978586       0.00114241
4
Lattice="2.7252315748402416 0.006560218469104986 -0.012799503247360098 -1.369190587837789 2.3565885528340154 -0.006381088980735793 0.03759937471405647 0.04374964780299155 8.849243738010195" Properties=species:S:1:pos:R:3:forces:R:3 structure_index=3 total_energy=-29.398653030395508 stress="0.08744291961193085 -0.006218550261110067 -0.04006660729646683 -0.006218479946255684 0.06971732527017593 -0.04623950272798538 -0.04006635397672653 -0.04623943939805031 0.08157669752836227" pbc="T T T"
Rh       0.79451112       1.17243612       2.75597022       0.00485391      -0.00180777       0.04454386
Rh       0.81039352       1.19639381       7.18790353       0.01282578      -0.00831909      -0.04051629
Rh      -0.55519698       1.96578724       4.97244682      -0.02522510       0.00670685       0.02030763
Rh       2.14679697       0.37810451       0.54712757       0.00754541       0.00342001      -0.02433521
4
Lattice="4.239111392933817 -0.0008673248903928094 2.4503339871921197 1.4119620992645037 3.997682301146774 2.4498379700565485 -0.000560005163556883 -0.00036983217888838843 4.898683343659053" Properties=species:S:1:pos:R:3:forces:R:3 structure_index=4 total_energy=-14.271184921264648 stress="-0.05256681889295578 0.006680037826299667 0.0058363680727779865 0.006679920479655266 -0.049901366233825684 0.0035667791962623596 0.0058356295339763165 0.003566573141142726 -0.021579785272479057" pbc="T T T"
Ag       3.95730695       0.11311784       5.30235656      -0.00167216      -0.00289081      -0.00182350
Ag       2.54391541       2.11138817       2.85180674      -0.00007478       0.00154934       0.00182311
In       1.13046878       1.11236412       5.30060349       0.00095059       0.00023704       0.00328536
Lu       3.95637503       3.11086903       5.30239682       0.00079634       0.00110447      -0.00328492
10
Lattice="5.603392490579404 -0.01760426071255545 -0.011126415865463936 -2.792020364595055 4.541914433234105 -2.7767881959347482 0.008487347016259557 -0.023909268906852264 5.603464840426203" Properties=species:S:1:pos:R:3:forces:R:3 structure_index=5 total_energy=-66.32144927978516 stress="0.013728643767535686 5.420536399469711e-05 -0.002196518937125802 5.308423351380043e-05 0.04526147618889809 0.00012783773127011955 -0.0021951734088361263 0.0001274581009056419 0.014068540185689926" pbc="T T T"
Ba       0.60523563       0.34653028       0.15500922       0.00027707      -0.00002886       0.00059559
Cu       0.61701410       2.59531378       2.96687333       0.00051866      -0.00038929      -0.00056409
O        0.61134584       0.01792413       2.95464207      -0.00089736       0.04312067       0.00042050
Ba       3.41241432       0.32575021       2.95192228      -0.00032401      -0.00015117      -0.00043592
W        3.41451027       2.59817418       0.15952802      -0.00013501       0.00003083       0.00000382
O        2.02107467       2.60922659      -1.22909703       0.03096175      -0.00006371       0.02975495
O       -0.79544336       2.60461393       1.55927833      -0.03097393       0.00026023      -0.02996302
O        2.02609514       2.59923613       1.55257124       0.02143817      -0.00037027      -0.02051750
O        3.40628229       0.65400721       0.15230589       0.00113845      -0.04289714      -0.00046677
O       -0.80044245       2.61463313      -1.22242222      -0.02200399       0.00048883       0.02117216
9
Lattice="5.8346486887651 0.2052556577065828 0.04321496698717399 1.9538028957537876 5.775089701117786 -1.0527388165937508 0.008226992739585604 0.10232530582882585 4.9438053368924075" Properties=species:S:1:pos:R:3:forces:R:3 structure_index=6 total_energy=-52.15803527832031 stress="0.018438823521137238 -0.0035212477669119835 -0.0025537977926433086 -0.0035228803753852844 -0.005263977218419313 0.0377577543258667 -0.002550862031057477 0.037761736661195755 0.0168013796210289" pbc="T T T"
N        3.87130183       2.88560312       3.04456949       0.00126028      -0.00112122       0.00228265
O        1.76750588       0.62559178       2.44207361       0.00766398      -0.02046674      -0.00785363
N        1.91233247       1.31578231       3.41725896      -0.00212491      -0.00114074      -0.00763558
O        3.77428692       3.87119195       3.72836931       0.01650959      -0.00564742       0.02127749
O        6.87995503       4.60633069       1.32923039      -0.01282365       0.03382279      -0.01337403
O        6.70795640       5.16742520       0.24926010       0.00477530      -0.00574378       0.01149912
O        1.13275272       1.82350151       4.18429407      -0.00365639      -0.00631452       0.00460172
O        3.39384952       1.58896042       3.76577003       0.00851268       0.04318675      -0.01520342
O        4.27641222       2.69640226       1.92799736      -0.02011657      -0.03657436       0.00440526
16
Lattice="7.169033596685852 0.004544726001271655 0.006594324633428537 -0.003932448715222713 8.510484430779874 -0.6397693151523902 -0.008809799175085151 0.13691136349715258 8.533508225995039" Properties=species:S:1:pos:R:3:forces:R:3 structure_index=7 total_energy=-103.16901397705078 stress="-0.008105883374810219 0.0003855544491671026 -0.00023451574088539928 0.0003855389659292996 -0.009359482675790787 -0.00017862851382233202 -0.0002345214888919145 -0.00017860332445707172 -0.009302224963903427" pbc="T T T"
Y        6.35125397       7.92690057       6.68078844      -0.00892702      -0.02052562      -0.00269119
Y        0.97794573       0.73782325       1.52278744       0.00269216      -0.00906492      -0.00943780
Y        0.97666763       5.04981806       5.47356940      -0.00557625       0.02101322      -0.02004490
Y        2.76512368       7.15016040       3.16830379       0.00807365      -0.00093313       0.02727419
Y        4.55959788       5.69646554       0.43573802       0.00901017      -0.02226394       0.00412112
Y        6.35412532       7.14814008       3.17413215      -0.00963698       0.01392287       0.01674733
Y        4.56113052       0.74416317       1.52347266       0.00911150      -0.03087744       0.00192269
Y        6.35007191       2.96758811       7.76927428      -0.00123979       0.00387958      -0.01419126
Y        2.76657616       2.95689057       7.76448923      -0.00480612       0.02603536      -0.00658290
Y        2.76140273       7.91268524       6.67618552       0.00427224       0.01711087      -0.00417282
Y        6.34899844       3.59773607       2.73130895       0.01700391       0.00486702       0.01274890
Y        4.56309879       5.05900521       5.47368353      -0.00841591      -0.00447033      -0.00727165
Y        4.56161009       1.49181464       5.02624680      -0.00253930       0.02816072      -0.00109756
Y        0.97516520       1.50011691       5.01627465       0.00279919      -0.00740520       0.02021291
Y        2.77148854       3.59652380       2.73670135      -0.01219791       0.00270594      -0.01823319
Y        0.97743189       5.69112454       0.43451243       0.00037646      -0.02215500       0.00069611
8
Lattice="3.9815634143516516 0.012585990941993112 -0.060443550058564 -0.05046795699201402 5.603575317403124 -0.049951320879203495 0.03540127747862513 0.05037397992010512 5.615107520567077" Properties=species:S:1:pos:R:3:forces:R:3 structure_index=8 total_energy=-34.028167724609375 stress="-0.03907478228211403 -0.00013504503294825554 -0.002013858873397112 -0.00013523436791729182 -0.056359853595495224 0.0008697621524333954 -0.0020151149947196245 0.0008687808876857162 -0.03637941554188728" pbc="T T T"
F        3.09934907       4.17735924       4.13710144       0.00026409      -0.01761850      -0.04294515
Mg       3.07754379       5.47547030       2.62739803       0.00073472      -0.00420681       0.00750994
Mg       3.12080752       2.69626228       5.46213737      -0.00025684       0.00256323      -0.00555143
F        1.13008055       2.70295598       5.49807762       0.00018355      -0.00135711      -0.00202566
F        3.09981406       1.15611220       1.15932937      -0.00232963       0.01726132       0.03924011
F        3.12685105       1.37856278       3.97339221       0.00102394      -0.02673543       0.03038193
F        3.08529565       3.96295350       1.33710818       0.00115933       0.02729764      -0.02908132
F        1.08689147       5.47076832       2.66074501      -0.00077922       0.00279562       0.00247180
4
Lattice="5.047101523470241 0.012765477472817146 0.018148401230169423 -2.536300232908466 5.037321909750551 -2.5593060047424174 -0.012436405163826013 0.014698772048488629 5.056337980011257" Properties=species:S:1:pos:R:3:forces:R:3 structure_index=9 total_energy=-23.85753631591797 stress="-0.03564530983567238 -0.03446587920188904 0.033781446516513824 -0.03446584939956665 -0.01268020085990429 -0.04081331193447113 0.03378143161535263 -0.04081328958272934 0.020293358713388443" pbc="T T T"
Ho       0.50738247       0.88967834       3.46620851       0.00996446      -0.00241741       0.00994612
Y        3.03659048       3.40528269      -1.58632601       0.00304276       0.00270166      -0.01557007
Y        0.51135804       3.40804270       0.92931578      -0.02167391      -0.00287612       0.00293662
Y        3.03753135       0.88733688       0.94858480       0.00866669       0.00259187       0.00268732
18
Lattice="5.460060502342332 0.035043442192116185 1.1133136967599833 -0.3294867136815784 5.464300018819119 1.0785307038518015 0.12153124971302307 0.1425806464073063 6.507617325476344" Properties=species:S:1:pos:R:3:forces:R:3 structure_index=10 total_energy=-116.20169830322266 stress="-0.018125688657164574 0.006047780159860849 -0.005979720037430525 0.0060481298714876175 -0.0193711519241333 -0.002156008267775178 -0.005979509558528662 -0.0021577065344899893 -0.003349962178617716" pbc="T T T"
Li       4.77832817       3.43960369       3.49072357       0.01935708       0.00869503      -0.00150285
V        2.05438597       3.37387891       2.55176216       0.00983965      -0.00784273       0.03689611
Li       2.25833120       0.65290914       2.36350219       0.03894395       0.00194526      -0.02500281
O        1.60924464       2.94302087       4.97931215      -0.01425178      -0.01120490      -0.00386462
Li       5.02551902       0.76598538       2.73547354       0.01218951       0.00258452       0.00189158
Li       3.14229816       1.77170657       4.75121585      -0.02788198       0.00341674       0.02650238
O        4.52706115       0.25544318       4.94135253      -0.00271177       0.00445843      -0.01246788
V        2.88614040       4.53449560       5.64605299      -0.00917429       0.04293597      -0.01419932
Li       0.25628483       4.42459374       4.71032755      -0.01843128       0.01170616       0.01675574
O        0.79928185       4.65399973       2.84564408       0.03188813      -0.02407348      -0.00075924
O        3.22110898       4.61961402       3.79987411       0.01951486       0.00171575      -0.02268715
V        0.27362260       1.71417773       4.72681827      -0.02889842       0.03616302      -0.01089925
O        3.40715888       2.20354993       2.86547710      -0.00611550       0.01915735       0.00314298
O        4.42926455       2.96462886       5.56001969      -0.01057768      -0.00747228       0.00129473
O        5.44408738       1.19820379       7.35842062      -0.03094677      -0.03811266      -0.00223896
O        2.57873506       3.91931300       7.34538134      -0.00443560      -0.02615384      -0.00387000
O        0.82378619       2.05066591       2.54612127       0.02397059      -0.00306304       0.00478664
O        1.86618513       0.21970996       4.46375767      -0.00227839      -0.01485533       0.00622237
8
Lattice="5.3814392523871675 0.2576863611815871 -0.4824403951213092 -0.5356883740915599 5.624342306436128 -0.5214918333050765 0.28993393038665627 0.26812096575897454 5.61611205508321" Properties=species:S:1:pos:R:3:forces:R:3 structure_index=11 total_energy=-44.795867919921875 stress="0.00688263401389122 -0.0112525699660182 -0.006175557151436806 -0.011249501258134842 0.017674461007118225 -0.01197179313749075 -0.006179814226925373 -0.011972357518970966 0.006067690439522266" pbc="T T T"
F        2.30905888       4.43049402      -0.44961923      -0.02736211       0.03301847       0.01304853
F       -0.13268151       3.24864877       2.67810843       0.02727616      -0.03222668      -0.01464891
Zr       3.77963919       3.96885444       0.87251911      -0.00138575       0.00004046       0.00053723
F        4.41394881       2.54005289      -0.42602306       0.04004210      -0.00957203       0.00155497
F        3.14302273       5.39703454       2.17061334      -0.03837436       0.01047075      -0.00058711
Rb       1.50179406       1.16270047       4.18342632       0.00006949      -0.00067632      -0.00077443
F        2.56594627       2.57694411       1.71815402      -0.02610254       0.00232899       0.02736890
F       -0.38926282       5.10330774       0.50865452       0.02583635      -0.00338411      -0.02649903
12
Lattice="5.312387085403244 -0.020513308459455815 0.003181404909379381 0.02227555029832624 4.802775764387456 -0.016895707451304483 -0.004051227312752265 0.020778799319567363 5.827091230222947" Properties=species:S:1:pos:R:3:forces:R:3 structure_index=12 total_energy=-75.25276184082031 stress="0.01045259740203619 0.004791777580976486 -0.0010302719892933965 0.004791051149368286 0.002472890540957451 0.0003949872625526041 -0.001033441280014813 0.00039336143527179956 -0.009048845618963242" pbc="T T T"
Sn       1.54036807       1.42997815       0.57908437      -0.00416612       0.01209636       0.03132351
O        3.28787146       2.73356245       3.83069964       0.00599621       0.01996966      -0.03062089
O        5.10441119       0.31563940       0.92344691      -0.02333567       0.02193138      -0.01890945
Sn       4.19485741       1.42978017       2.50887901       0.00950409      -0.01414588      -0.01997197
O        5.09713026       0.12714147       3.83606086       0.00182549      -0.00611304      -0.01650083
O        0.63363285       2.75045181       5.07684713      -0.00732291       0.01210121       0.03340852
O        2.44899593       0.33112021       2.17312143      -0.03451364       0.00688509       0.01390782
O        0.63214235       2.54097422       2.16666506       0.02415733      -0.00951415       0.00549185
Sn       1.54986423       3.84459535       3.48384038      -0.00425448      -0.01486209       0.02223609
O        3.28662826       2.52985011       0.91664918       0.02974305      -0.01487601      -0.02697927
O        2.44237832       0.14547799       5.08564563       0.00413110      -0.01725215       0.03522256
Sn       4.20457206       3.83866882       5.41443467      -0.00176509       0.00377961      -0.02860764
10
Lattice="5.115684321653901 -0.3108241873681288 0.0007514322143284056 -1.118081687341343 4.991464897720348 0.039105717827382085 0.002298695217728802 -0.06389059849007923 6.13654302371199" Properties=species:S:1:pos:R:3:forces:R:3 structure_index=13 total_energy=-50.23381423950195 stress="0.02632831037044525 -0.001168988412246108 0.00201448705047369 -0.0011713940184563398 0.01721566542983055 -0.0028739366680383682 0.0020155066158622503 -0.0028745965100824833 0.01396868098527193" pbc="T T T"
O        2.42028353       4.52604952       3.58925648       0.03035472      -0.00881842       0.01502109
O       -0.04496060       4.01018652       5.56151833      -0.01362543       0.02113876      -0.00496867
O       -0.03415685       4.05702568       1.64156185      -0.02402695       0.00378649      -0.00473868
N        0.55209169       3.56081163       0.52587392      -0.00105197       0.00411032      -0.00449396
O        0.42633617       2.21295480       0.51532233       0.00802843      -0.00891213       0.00317696
O        3.07505495       1.40099057       2.46655552      -0.02283279       0.02121702       0.01793116
N        3.66544344       0.88276814       3.56896031       0.00203947      -0.00091964       0.00437838
O        3.07381575       1.37069545       4.68557735      -0.02848988       0.01479291      -0.02152558
O        1.86231268       3.90141950       0.52115734       0.02375712      -0.01212311      -0.00187164
O       -0.13981024       1.53521727       3.57474753       0.02584636      -0.03427226      -0.00290921
8
Lattice="5.5093059322854545 0.04154490784915285 -0.03530454789880638 2.595453203811345 3.8647112378891877 2.6590182880546203 0.042372237418873956 0.005050239060308304 5.358077979200648" Properties=species:S:1:pos:R:3:forces:R:3 structure_index=14 total_energy=-49.19690704345703 stress="0.003464695531874895 -0.026976382359862328 0.007686057593673468 -0.026976659893989563 -0.011319292709231377 9.084252087632194e-05 0.007686162833124399 9.209076961269602e-05 -0.007500079460442066" pbc="T T T"
V        3.26210371       1.46154926       1.82849058      -0.02268727       0.01074305      -0.00530227
F        4.43275177       1.15336494       3.39362299      -0.02526516      -0.00900003       0.00654138
F        5.95444376       3.40986241       4.03804139      -0.00289761      -0.01920049      -0.01934674
F        4.89638696       1.81800536       6.07201327      -0.00202665      -0.01379867      -0.00667374
F        3.20980511       3.38409828       7.63387225      -0.00856087       0.02893532       0.02745262
V        6.03444695       1.48538710       4.49174728       0.03869959       0.00534718      -0.02245656
F        2.13068647       1.77272441       5.62139170       0.03492270       0.01160251       0.00768970
F        1.66963352       1.12455313       2.94508242      -0.01218474      -0.01462880       0.01209552
18
Lattice="5.583003001515352 -0.08897450492763095 0.3579831167268556 -0.20410986926362812 5.869436552706549 2.6744125984114313 -0.2039148012295016 -0.05777342027448666 9.403077239509344" Properties=species:S:1:pos:R:3:forces:R:3 structure_index=15 total_energy=-124.48152160644531 stress="-0.018119893968105316 -6.19968559476547e-05 0.0022329676430672407 -6.240209040697664e-05 -0.023478830233216286 0.0016684017609804869 0.002233584877103567 0.0016675472725182772 -0.019688161090016365" pbc="T T T"
O        3.18547231       2.50336503      10.81628107       0.00317697      -0.01186278       0.02510124
O        2.59226560       0.04817938       2.76157431      -0.02487481      -0.02524206      -0.01553446
V        2.75828501       4.07092498       2.28226013       0.02422017       0.01002201       0.00861597
V        3.65393940       0.80524371       1.55586682       0.00599796      -0.01274191       0.01537000
V       -0.18538258       2.99840412       7.04757058      -0.01915431       0.00041670      -0.01980048
V        3.99585270       4.98028131       8.51273330       0.00298923       0.00970495      -0.01372737
Na       0.16111419       2.06686988       3.56945112      -0.01281438       0.02243813      -0.01738326
O        0.95605131       3.13205178       5.73674243      -0.00681543      -0.03057654      -0.01411223
O        5.20276624       0.59313146       2.08198936      -0.00600302      -0.01718479       0.03959209
O        0.04023847       4.23834339       8.36316641       0.00181480       0.01493806      -0.04234949
Co       2.59014359       4.06577946       5.50153501      -0.01069915      -0.02282250       0.00489935
O        1.14040058       3.85643982       2.36132363       0.02089250       0.03684212       0.00643165
O       -0.18955432       1.50899928       7.67932726      -0.03292345       0.00074953       0.00412291
O        3.34153198       3.50091477       3.89329498      -0.00452378      -0.00700310       0.01040179
O        2.90609559       4.81301163       9.78622269       0.03265750      -0.00953266       0.01234072
O        4.37024632       0.67539253       5.33965176      -0.00994941       0.02413112      -0.00573004
O        3.13523206      -0.08390270       9.41524666       0.04533475       0.00465181       0.00893974
O        3.70638746       3.73322126       7.09091971      -0.00932648       0.01307205      -0.00717836
12
Lattice="3.875137447229924 -0.006044124353239851 -0.005565032064818945 0.005724836324043575 3.8658133253697935 0.0025049413203377443 0.005466650063590114 -0.016333771430758932 11.011056586261105" Properties=species:S:1:pos:R:3:forces:R:3 structure_index=16 total_energy=-83.5962905883789 stress="0.042893122881650925 0.00019093275477644056 -0.000475503271445632 0.0001915741158882156 -0.00017537109670229256 -0.00045469769975170493 -0.0004714145034085959 -0.0004550884768832475 0.024363553151488304" pbc="T T T"
P        2.21407821       3.22900571       0.33708929       0.00289978      -0.00484880      -0.02494121
P        0.27957401       3.22506036       1.98859425       0.00486522      -0.00776445      -0.02095709
P        0.27258225       3.22699167       5.65128045      -0.00064440      -0.00937287       0.05522357
P        2.21309908       1.28804085       1.98195964       0.00475550      -0.00323685      -0.00594384
P        2.21257171       3.22245719       3.64007764       0.00038568      -0.00710667      -0.04417378
W        0.27130255       1.31082380      -0.04310923      -0.00741309       0.00323323       0.01849876
W        2.21291784       3.21825391       7.48564683      -0.00126736       0.00693323      -0.01790054
P        0.27866656       3.22439195       9.31440795      -0.00381837      -0.00528869       0.00023007
P        2.20486733       1.28806784       5.64491764       0.00336024       0.00963821       0.02877379
W        0.26011838       1.29710509       3.97878749       0.00137683       0.00615281       0.01380482
P        0.27238320       1.29009159       7.47919416      -0.00263061       0.00724114      -0.01278475
P        2.21289700       1.28566304       9.31480771      -0.00186921       0.00441966       0.01017018
4
Lattice="4.050193059981133 0.009120952122143831 -0.007651048380658773 -0.012023186454050606 4.132280187006791 -1.908602397731766 0.0060561918272421834 0.14565907688813923 5.71579921633211" Properties=species:S:1:pos:R:3:forces:R:3 structure_index=17 total_energy=-13.43867301940918 stress="-0.08173156529664993 -0.0005166828632354736 -0.0061286562122404575 -0.0005168316420167685 0.025144489482045174 -0.023151913657784462 -0.006128622684627771 -0.023151716217398643 -0.04939897358417511" pbc="T T T"
Na       0.59843474       1.55518015       3.41501034       0.00291858      -0.00250703      -0.00100081
Na       2.62097258       2.62593639       0.33154088      -0.00015578       0.00136944       0.00041424
As       2.62060623       3.92684406       3.10151457      -0.00194468      -0.02215601      -0.02156276
As       0.60237056       0.25369209       0.64453634      -0.00081812       0.02329360       0.02214932
6
Lattice="3.5971529209448505 0.014284919824427512 0.9165163321990916 -0.06776109337285599 5.323580452621366 0.17913003741182382 0.30644900579443207 0.3315860450392429 6.300744813852392" Properties=species:S:1:pos:R:3:forces:R:3 structure_index=18 total_energy=-31.03805923461914 stress="-0.0014579746639356017 -0.0007309551583603024 -0.0018455078825354576 -0.0007308396743610501 -0.0033814061898738146 0.002071102848276496 -0.0018457035766914487 0.002070350106805563 0.004802459850907326" pbc="T T T"
Ge       2.66665658       3.28487673       5.86824061       0.00475138       0.02900116      -0.02962682
Ge       3.17990403       5.02052958       3.79714104       0.01520350       0.00416322      -0.05855678
Ge       1.91249500       5.07864205       1.26064826      -0.00774249      -0.00176064       0.02832353
Dy       1.51929497       2.36537292       2.83564758      -0.00385198      -0.00364017       0.02180365
Ge       0.88967474       5.52107104       5.26460132      -0.00198890      -0.00342765       0.00446195
O        3.56314882       2.33303536       2.33186902      -0.00637151      -0.02433596       0.03359455
6
Lattice="6.066469730182484 0.0666458330682099 -0.009304472792220159 -1.2612353625403678 3.6309589263351674 -0.011490727419411885 0.002708663149639739 0.0075326523687289605 5.426955905781991" Properties=species:S:1:pos:R:3:forces:R:3 structure_index=19 total_energy=-25.596614837646484 stress="0.0361725315451622 -0.04864206537604332 -0.006485044024884701 -0.048642028123140335 0.0038348545785993338 -0.017075056210160255 -0.006485041230916977 -0.017075030133128166 -0.03594215214252472" pbc="T T T"
Ge       4.40307686       3.31085798       3.75015670       0.04122045      -0.02334835       0.01658829
Ge       4.42089853       3.30710740       1.04752108      -0.00282975      -0.01555431      -0.01459480
Ge       3.23342480       0.86330872       1.05542980       0.00751074       0.00088084      -0.00136084
Ge       3.23606531       0.85149259       3.76767920       0.00135632       0.02042538       0.00166841
Ge       0.79149669       2.04416239       1.05157338      -0.00422965       0.01705967       0.01698709
Ge       0.80753841       2.04550672       3.77761072      -0.04302811       0.00053678      -0.01928815
18
Lattice="5.08893091664635 -0.10346976497337766 1.1965325953494232 0.8301702156026691 5.248817613927435 0.7105235960685516 0.08695447697037566 -0.02107406526564638 7.48929389500655" Properties=species:S:1:pos:R:3:forces:R:3 structure_index=20 total_energy=-124.71145629882812 stress="-0.03752288594841957 -0.004465094767510891 0.001286931335926056 -0.004466990474611521 -0.030070794746279716 -0.0020381445065140724 0.001286743558011949 -0.0020362362265586853 -0.036705851554870605" pbc="T T T"
O        1.84903178       4.58296589       4.73399658      -0.00034499      -0.00512433       0.01495677
Li       1.27509817       3.13574213       3.40836477       0.03757693      -0.00710889       0.02802701
Li       4.74433978       2.02285013       7.55463569      -0.02562533      -0.00153278       0.00377933
O        3.23215244       0.75682471       1.03480647      -0.02351692      -0.00907248       0.00083631
Li       1.67314021       2.07311127       0.76950141      -0.01599134      -0.00309867      -0.00315538
V        4.24309735       1.04039943       4.51953269       0.01006892       0.01386511      -0.00168940
O        0.88814164       0.59914439       7.04370686      -0.01342449       0.00223201      -0.02039677
O        4.65281995       4.48097890       4.11602994       0.00875748       0.01396566      -0.00688137