8
Lattice="4.033253630890195 -0.0031131424526179906 0.004706610783628742 0.0054475096630338445 6.5854708794533705 -2.2367640435194445 -0.009145974884892487 0.007321552140925637 6.957835820815825" Properties=species:S:1:pos:R:3:forces:R:3 structure_index=0 total_energy=-32.21113967895508 stress="0.02950516901910305 -0.0034050492104142904 -0.0021641014609485865 -0.0034047772642225027 0.012058858759701252 0.011305048130452633 -0.0021643450018018484 0.011305049061775208 0.004758113995194435" pbc="T T T"
Sn       2.01165335       0.23730669       5.78031625      -0.00063498      -0.00738211       0.01664507
Cu       2.02569475       3.65942877       1.01859630      -0.00166341      -0.01383642       0.00167348
Se       2.01712951       4.25345160       3.41367852      -0.00061468      -0.00038517       0.00613789
Cu       0.00140592       0.19683601       2.13428077       0.00076137       0.00130944       0.02786173
Se       2.02011285       1.19472988       1.20893198       0.00060549      -0.00917102      -0.02136207
Se      -0.00281716       1.22648648       4.38210113       0.00269353       0.03520823      -0.02721643
Cu      -0.00232345       3.67842732       4.65665892       0.00352222      -0.00745671      -0.01647443
Se       0.01062367       4.41167642      -0.05090134      -0.00466945       0.00171374       0.01273478
8
Lattice="4.659382743381469 -0.00467354523935488 -0.0026617345988806554 0.005726689898741148 5.700332511022756 -0.001544099707805264 0.0027414166836984342 -0.0018109032256605976 5.7416802866653684" Properties=species:S:1:pos:R:3:forces:R:3 structure_index=1 total_energy=-27.512624740600586 stress="0.009773553349077702 0.00040823008748702705 -0.00048157290439121425 0.0004082188243046403 0.04739568009972572 -0.0003643506206572056 -0.00048153253737837076 -0.0003643109812401235 -0.048797525465488434" pbc="T T T"
Ga       3.78753146       0.04845977       0.25784455       0.00175196       0.00690668      -0.01510993
Ga       3.79066102       2.94522386       0.25281364       0.00089505      -0.00754738      -0.00737111
Ga       3.78939038       0.05069015       3.20169422      -0.00095674       0.00356947       0.01319903
Tm       1.46309472       4.34855981       1.72912384       0.00026496       0.00197910      -0.00951287
Ga       3.79255613       2.94703313       3.19962160      -0.00191964      -0.01051288       0.00964011
Ga       1.45968700       1.49774063       0.28846893      -0.00119295       0.00306469       0.03044277
Ga       1.46546711       4.34642148       4.59858947      -0.00141776       0.00146617       0.00947867
Ga       1.46068908       1.49880720       3.17068200       0.00257512       0.00107415      -0.03076665
5
Lattice="4.005616211637041 -0.003909964215178887 0.015538300576961428 0.008994081850703498 3.824737105773568 -1.1536594626524554 -0.008525442885408921 -0.03234919601657645 6.671790182666291" Properties=species:S:1:pos:R:3:forces:R:3 structure_index=2 total_energy=-31.112503051757812 stress="0.023580949753522873 0.005774007178843021 0.0002427992003504187 0.005773412529379129 -0.03941049054265022 0.00906897708773613 0.0002426705468678847 0.00906909629702568 -0.014331831596791744" pbc="T T T"
Ce       1.65226934       2.87538082      -0.65497315       0.01013835       0.02805069       0.02612730
Si       3.65404460       1.41805329       1.35904928       0.00565896      -0.00728413      -0.00030453
Ce       1.66366603       3.78372628       2.20569334      -0.01194309      -0.02877649      -0.03180796
Si       3.65861400       2.16749313       3.78551054      -0.00324042       0.00079774       0.01185339
Si       3.64622474       0.62833732       5.60511835      -0.00061390       0.00721220      -0.00586820
8
Lattice="3.576298867533361 0.005339502250044684 0.3970435897328434 1.7599682611593739 3.11289714890893 0.4016138911862357 0.04660151930408708 0.02936812145938978 15.769436835500912" Properties=species:S:1:pos:R:3:forces:R:3 structure_index=3 total_energy=-33.1063117980957 stress="0.038042813539505005 -7.440704212058336e-05 -0.00018494485993869603 -7.387513323919848e-05 0.03774463012814522 0.0003348585159983486 -0.0001854827132774517 0.00033491465728729963 0.03482081741094589" pbc="T T T"
S        1.93723649       0.82484879       0.38501080       0.00188223      -0.00031938      -0.01259565
S        1.27390535       0.42531149       6.29646771      -0.00217156       0.00027685       0.02194226
Ga       2.53512968       1.16688262      11.21582678       0.00103501      -0.00006593      -0.01500476
Ga       3.58899936       1.78830801       1.80117723      -0.00387514      -0.00198739       0.02129892
S        4.46309115       2.29513117      10.12736651       0.00761494       0.00464092      -0.04787040
S        1.61878676       2.71779563       3.19607768      -0.00041229      -0.00001721       0.00139368
S        0.61185828       0.04109610      12.25744781      -0.00359518      -0.00178355       0.01741123
Ga       4.94485930       2.57196912       5.80249786      -0.00047804      -0.00074434       0.01342475
9
Lattice="3.370774423908087 0.011499278162881878 -0.7586774195304999 -0.2218946173095929 4.022189174152199 -0.9248790379992005 0.37384658366834217 0.035209406318528154 9.53404001936082" Properties=species:S:1:pos:R:3:forces:R:3 structure_index=4 total_energy=-49.91156005859375 stress="-0.009844750165939331 -0.0008056875667534769 -0.0009480271255597472 -0.0008037833031266928 -0.00976394023746252 -0.0035858165938407183 -0.0009445361793041229 -0.003585496451705694 -0.01398654654622078" pbc="T T T"
O        2.40452181       3.88140977       8.19186220      -0.00005534       0.01471576       0.00233893
Sr       2.43958187       2.16109012       0.45465362      -0.00022648       0.00697022      -0.00189212
O        2.84878011       0.47616852       2.25156450      -0.00096948      -0.00222678      -0.00548548
Bi       0.41914721       3.55557665       7.23439603       0.00101021       0.01205221       0.00725365
O        0.68705397       1.71417826       8.39702773       0.00130939       0.01090256       0.00730038
O        3.42699080       1.09864619       4.82876063      -0.00264489      -0.01906161      -0.01460281
O        1.82463868       3.28951798       5.60785734       0.00409044      -0.00449587       0.01980299
Bi       1.46298641       0.79675464       3.96607334      -0.00134910      -0.01144575      -0.00726506
O        1.19503429       2.63715918       2.80377172      -0.00116436      -0.00741055      -0.00745025
12
Lattice="5.779814759282137 -0.007864382402206141 2.395978526152465 -2.2288652266470717 5.300438183827819 -2.3903664881341684 0.01997761973691855 -0.10579679112805061 7.836419135648553" Properties=species:S:1:pos:R:3:forces:R:3 structure_index=5 total_energy=-69.12714385986328 stress="-0.00873812660574913 -0.0004041531356051564 0.0007983921095728874 -0.00040461134631186724 -0.009484879672527313 -0.0007304642349481583 0.0007976572378538549 -0.0007315540569834411 -0.00571901910007" pbc="T T T"
Pb       0.69388743       4.35498028       7.03085277      -0.00836147       0.00565227       0.00079679
Ba      -0.27255443       1.32784718       0.70038830       0.00282524      -0.00276465      -0.01594952
Ba       3.71554565       2.28677004       6.97817324       0.01040199       0.02531900      -0.00186737
O        0.45788575       2.44353648       6.15693753      -0.02383042       0.02593660      -0.02249463
O       -0.96130025       4.03293021       0.65801030      -0.00354896      -0.00455382      -0.00095443
O        3.03531067       0.76215338       4.91384233      -0.00126949      -0.00436477       0.01965389
O        2.47644339       1.13819381       1.15997434       0.00221290       0.00324231      -0.01330056
O        2.91848282       4.70716431       5.40342568       0.03086594      -0.02359521       0.02515688
O        2.29980665       4.19763421       0.49706826      -0.01134828       0.00152343       0.00913907
Ba       2.05739488       3.60011550       3.02171695      -0.00518610       0.00054748       0.01334804
O        0.17205997       1.78624383       3.22042590       0.00174733      -0.01498549      -0.00930836
Pb       1.02600168       0.40518180       4.55799601       0.00549112      -0.01195703      -0.00421956
6
Lattice="3.9965022509158112 0.0038661670827871424 -0.00018256047345301235 -2.0018451458880784 3.4594501956737456 -0.002554404239286062 0.0004918397497418481 0.006339459800842673 4.911000826149935" Properties=species:S:1:pos:R:3:forces:R:3 structure_index=6 total_energy=-39.83955383300781 stress="0.04364610090851784 0.00418513547629118 0.0021188443060964346 0.004184609279036522 0.04812999069690704 0.01759691908955574 0.002117652678862214 0.017597563564777374 0.0872885063290596" pbc="T T T"
Co       2.69276885       2.16306000       2.22024237       0.00891953      -0.00051101       0.00710757
Co       0.69521897       3.31722311       3.39870752      -0.00267421      -0.00467833      -0.00171323
Co       0.69794752       1.00929379       3.43009356      -0.00670187       0.00232395       0.00167311
Co       0.69714433       1.00468490       0.97817566      -0.00549767       0.00412400       0.01075716
Co       2.69332893       2.16618693       4.61737267       0.00714301      -0.00108030      -0.01085955
Ge       0.69445052       3.31237624       0.94081264      -0.00118884      -0.00017821      -0.00696503
8
Lattice="4.3182493341106865 0.018892926850593864 1.8452068302801015 2.1379338909558623 5.4562826068549155 0.9213042186051679 0.024560344759695242 0.008922070633549196 5.9331001083239245" Properties=species:S:1:pos:R:3:forces:R:3 structure_index=7 total_energy=-41.43605041503906 stress="0.023369356989860535 0.007153756450861692 -0.003028826555237174 0.007153317332267761 0.05383417382836342 0.001684536226093769 -0.0030297304037958384 0.001684584771282971 0.04195113852620125" pbc="T T T"
Si       3.64299281       5.34329493       4.81571745      -0.01076341      -0.02674796      -0.00523821
Si       5.51936638       5.33112829       3.39950384       0.00358067       0.00916908      -0.00170695
Si       2.28738247       3.27916731       2.01910582       0.01504733      -0.00455604      -0.00754136
Si       4.60628744       3.07199554       7.07724631      -0.02020712       0.03219581       0.01227347
Si       0.76218884       1.56240615       1.12218857       0.00922102       0.02055002       0.01086396
Si       4.10343687       1.59988571       5.25185144       0.02231691      -0.01114251      -0.02241771
Si       2.57208024       3.30021753       4.35426206      -0.00287813      -0.01806659      -0.00248735
Si       2.45789775       0.10028285       6.15096467      -0.01631721      -0.00140175       0.01625421
12
Lattice="4.9089769556187495 -0.000587696273564663 0.16105574664838163 -1.7478191013358135 4.586245641656885 0.17979535654796694 0.10502011095679134 0.1272504016087017 6.663998185212764" Properties=species:S:1:pos:R:3:forces:R:3 structure_index=8 total_energy=-80.06592559814453 stress="-0.04608830437064171 0.005892280954867601 0.008377515710890293 0.0058946553617715836 -0.04085679352283478 0.013179079629480839 0.008378073573112488 0.013178069144487381 -0.03341406583786011" pbc="T T T"
As       3.20508413       2.62287029       6.77225234       0.01327446      -0.00461245      -0.00089519
Mn       0.81409545       4.12179139       1.78023170      -0.00419465       0.00197570       0.00090196
Mn       0.86532640       4.18422863       5.11196839       0.00588071       0.00280695      -0.00159117
O        2.37739907       3.04133974       1.55486932       0.00104865       0.04115331      -0.01161635
O        3.54445459       0.57164782       3.43570577      -0.00517863       0.02291337      -0.00639939
O        0.24280074       2.90279155       3.27576735      -0.02741989      -0.00694662       0.00263295
O        0.99896586       0.61761873       1.82475193      -0.00411836      -0.04630693       0.01688707
O        3.23686787       0.88124908       6.76860082       0.03074690       0.00752634      -0.00386974
As       0.27479124       1.16100829       3.27150927      -0.01448113       0.00667658       0.00588627
O        2.43318138       3.10915769       5.32991361      -0.03950422      -0.01955843       0.01140368
O       -0.06474777       3.21291962       6.60966817       0.00555748      -0.02758782      -0.00213599
O        1.04615407       0.67361343       4.71386401       0.03838918       0.02195987      -0.01120412
4
Lattice="4.12477829009475 -0.000696243109661719 2.3833235579563983 1.3733785195154935 3.8875525178253234 2.382400216740418 -0.0010814291386518112 -0.0007015527485794034 4.764701267977737" Properties=species:S:1:pos:R:3:forces:R:3 structure_index=9 total_energy=-6.950588703155518 stress="-0.03982444107532501 0.0007807543152011931 0.0038899302016943693 0.0007805785280652344 -0.06378388404846191 0.0022109022829681635 0.0038897485937923193 0.0022110710851848125 -0.03277278691530228" pbc="T T T"
Li       1.43659820       2.05183901       3.31087108       0.00110855       0.00468974       0.01154240
Al       2.81210596       0.11281900       5.70819306       0.00125010      -0.00563749      -0.01670311
Hg       2.81030757       3.02543930       5.69981144       0.00340420       0.00567085       0.00979151
Hg       4.18922947       1.08442841       3.32218465      -0.00576286      -0.00472309      -0.00463080
6
Lattice="3.960350911022357 0.0031111036549497668 -0.009617183316948379 -1.9817033678219007 3.428696882637241 -0.0068324731709937005 0.033908399855894944 0.02661465444133448 13.555606649281195" Properties=species:S:1:pos:R:3:forces:R:3 structure_index=10 total_energy=-21.212621688842773 stress="0.03444434329867363 0.0069788070395588875 -0.0002311713178642094 0.00697897095233202 0.03847666457295418 -0.0025258390232920647 -0.00023090718605089933 -0.002525661839172244 -0.024978410452604294" pbc="T T T"
In       1.89027247       2.15444305       3.33055956      -0.00315555       0.00188697      -0.00588918
Se      -0.09497340       3.29149571       1.80019774       0.00161503      -0.00037553      -0.03664184
Se      -0.08620220       1.01510001       4.86831429       0.00120973      -0.00163172       0.04338008
Se      -0.07236753       1.02731429      11.65299374       0.00542410      -0.00316008      -0.00789952
Se      -0.08083626       3.30366452       8.57428632       0.00482826      -0.00148986       0.01023716
In       1.90577337       2.16598713      10.10939960      -0.00992154       0.00477023      -0.00318675
20
Lattice="5.11754196206045 -0.061717166439736425 -0.0642258245142328 0.07123524681909667 5.8060012063334545 0.040671298507276285 -0.22922976853398835 -0.05648922244917389 8.162740025927604" Properties=species:S:1:pos:R:3:forces:R:3 structure_index=11 total_energy=-153.75164794921875 stress="-0.021883267909288406 -0.00022836250718683004 0.00440099835395813 -0.00022598684881813824 -0.01873181387782097 -0.0001543461112305522 0.00440071290358901 -0.0001572762557771057 -0.019193429499864578" pbc="T T T"
O        1.20704086       1.69701831       4.49317857      -0.03063086       0.00212693      -0.00505017
Co       0.21273230       1.84902205       0.86338069       0.02307393      -0.00518088       0.00409558
Ca       0.13823655       3.27773086       6.04178622      -0.00298105       0.00065415       0.00575634
Y        2.72404553       3.26266043       3.61845737      -0.02330717      -0.00014118       0.00520863
O        1.22254716       0.38577063       1.80791220       0.01617384       0.00058873      -0.04370335
Co       0.24823980       4.77844804       0.88600519       0.02283987       0.00385069       0.00299153
O        1.42935563       1.88769273       7.47438435       0.02595174      -0.00262025      -0.00556485
Al       2.99606911       0.36885184       1.55452548       0.01343265      -0.00285294      -0.02532175
O        3.86361436       1.64123904       5.03493425      -0.02979517       0.00518008       0.01378900
O        3.98309692       4.87796269       2.46354148      -0.00433278      -0.00280473       0.01314917
O        1.45501122       4.61993593       7.49857961       0.02796094       0.00112240      -0.01129554
Y        2.37749436       0.34537764       6.14418129      -0.01997815       0.00153661      -0.01055170
O        3.93777104       1.63063292       2.44386636      -0.00333837       0.00536554       0.00925589
O        1.57797787       3.29524667       1.64370563      -0.00184169       0.00206350      -0.01466024
Al       2.49127321       3.29499625       0.08935107       0.02053856       0.00007155       0.00523422
O        3.98050637       0.36656165       0.04668223       0.04113305      -0.00265562       0.01503474
O        4.03908109       3.22130935       8.14421984       0.02873868      -0.00122750       0.01945653
O        3.90012219       4.83377399       5.05414183      -0.02653595      -0.00264172       0.01609683
O        1.24471407       4.85176594       4.51873055      -0.03066377      -0.00237393      -0.00531804
Nb      -0.19339460       0.39199964       3.96375125      -0.04643747      -0.00006210       0.01139735
10
Lattice="4.918447537005873 -0.013651044832616522 0.017933361603553157 -0.025906982662158663 6.2002349128695595 -0.010078926415905423 0.02230455201777584 0.017283121529610895 6.274039091948554" Properties=species:S:1:pos:R:3:forces:R:3 structure_index=12 total_energy=-70.3631820678711 stress="0.0038794055581092834 0.00037239649100229144 -0.001462779357098043 0.00037276148214004934 -0.001077096676453948 -1.0693913282011636e-05 -0.001461447449401021 -1.2266959856788162e-05 -0.0033285957761108875" pbc="T T T"
Nb       1.49997678       4.98798231       0.45085631       0.00197673       0.00099061       0.00024135
Ba       4.03951246       4.98719291       3.54487072       0.00204207      -0.01790572      -0.03004493
Ba       4.06845743       1.86913783       0.62775889       0.01232062       0.00460255       0.00372919
O        4.53565402       4.99095235       0.47326824      -0.00585973       0.00080590       0.00888146
O        1.92289506       4.16855742       4.95787888      -0.00197577      -0.00865650       0.01179504
O        1.99319058       0.55484529       5.88676909       0.00884914      -0.00311613       0.00772327
O        4.20397041       1.91728397       3.27876084       0.00066448       0.02536047      -0.03458698
Ba       1.73081766       1.89265410       3.69358387      -0.00098075      -0.01175611       0.01375389
O        1.90106351       3.24503469       1.32194098      -0.00237733       0.00764465       0.01421618
O        1.91046675       5.85438291       2.21776544      -0.01465935       0.00203019       0.00429225
11
Lattice="3.9598309333174275 -0.04790293239953036 0.02708791411971155 -1.8973288140430278 6.483159716819305 -0.7896337205209476 -0.04501379204230987 -0.04272801784333728 6.699604667605188" Properties=species:S:1:pos:R:3:forces:R:3 structure_index=13 total_energy=-90.6803207397461 stress="-0.014256780967116356 0.002271180273965001 0.011418608948588371 0.0022709176409989595 -0.02510802261531353 0.001033653737977147 0.01141883060336113 0.0010350478114560246 -0.03060145676136017" pbc="T T T"
O        2.58935760       2.81955611       0.63596945       0.00049058       0.04181153      -0.01094896
La       0.56432815       0.76876326       3.68213061      -0.00094897       0.00231370       0.00220105
La       2.57232551       3.78762999       4.96731045      -0.00243092      -0.01586017       0.01379468
O        0.58647648       0.79390580       0.33857827       0.00135178      -0.00613810      -0.00378271
La       0.61834347       4.18529157       1.63588910       0.00383223       0.01920429      -0.00636813
W        2.56650995       0.76724024       0.34854375      -0.00147878       0.00382737      -0.00212027
O        0.59092336       3.07880198       3.76063215       0.00251003      -0.02482033      -0.01728426
O       -1.35935055       4.94311884       2.81755067      -0.00578785       0.01727687       0.01619326
O        2.54875396       0.28241762       2.30046038      -0.00567954       0.01406631      -0.01981694
O        2.53930250       1.20533370       5.09576370       0.00637867      -0.00758724       0.02039140
O        0.60066172       5.15625870       5.96928048       0.00176272      -0.04409462       0.00774056
18
Lattice="5.233781275806351 0.027136267108262193 -0.8390735495648671 0.8965539456595976 4.922394672649168 -0.01203034067116727 0.17142869324879953 -0.1916652259804328 9.025230914902444" Properties=species:S:1:pos:R:3:forces:R:3 structure_index=14 total_energy=-121.41371154785156 stress="-0.011655515991151333 0.0032243754249066114 5.398811481427401e-05 0.0032217116095125675 -0.01232109498232603 -0.000624964595772326 5.367321500671096e-05 -0.0006241198279894888 -0.008881802670657635" pbc="T T T"
O        4.27305621       2.95230326      -0.09954701      -0.00206751      -0.01920748      -0.02889249
As       4.32494620       4.87841223       3.91624476      -0.01934516       0.01493014      -0.00330162
Ti       2.76227428       4.21061074       0.09083962       0.01692450      -0.01397068       0.00152437
O        3.14272675       0.57262800       0.81190844       0.03300643      -0.03234750      -0.01597726
O        1.32366688       1.90665408       5.33748991       0.00295659      -0.02106944       0.00329876
O        1.94819758       2.68092683       7.97912941      -0.00316560      -0.01941454       0.01847529
As       2.20957859       1.56592971       6.73226795      -0.00862247      -0.01344289       0.01209408
O        4.02761417       1.61489186       6.03481389      -0.01449251       0.02539381       0.00455321
O        0.41569455       1.50730654       2.70577163      -0.01819396       0.02435815       0.01135319
O        2.28258556      -0.03383441       7.29301143       0.00968852      -0.02181691      -0.00922966
As       4.63669528       1.37884884       0.48100263       0.01761973      -0.00799611      -0.01411852
Ti       1.69278042       2.79089606       3.37519754      -0.01535589       0.01420234       0.01020458
O        3.17458283       1.51198054       3.32360802      -0.02928776       0.00161433      -0.02857396
O        0.27369547       0.46268139       0.14713369       0.03809285       0.00845128      -0.00572328
O        2.20639689       3.51113972       1.78044585       0.00058062       0.01138157       0.00677976
O        5.22894982       5.25942325       5.55884494      -0.00943518       0.03355167      -0.00908571
O        5.46425742       4.03339557       3.01376373       0.00516474       0.01696879       0.03745228
O        2.96951057       4.00591964       4.41254626      -0.00406897      -0.00158668       0.00916612
12
Lattice="4.371899635935781 -0.013635628101012404 0.007940095091126921 0.020008080060952015 6.372766033020319 -0.06216697147847304 -0.01719381508814618 -0.13385682227685708 9.309730458763072" Properties=species:S:1:pos:R:3:forces:R:3 structure_index=15 total_energy=-39.86996078491211 stress="-0.01574588380753994 -1.783414882083889e-05 -9.589036380930338e-06 -1.7872609532787465e-05 -0.013102859258651733 0.00027007292374037206 -9.484610927756876e-06 0.0002700361073948443 -0.014172915369272232" pbc="T T T"
Ag       1.16120888       0.23827346       6.47418642      -0.00012825      -0.01355529       0.00169026
Na       3.35317297       3.40542770       8.57578125      -0.00008263      -0.00705845       0.00631584
S        3.36156125       2.19221835       1.70562168       0.00020120       0.01936154       0.01690962
Ag       3.36222553       3.74736066       4.19427656      -0.00013731      -0.01427747      -0.01233913
Na       3.35273853       0.56540067       3.91702986      -0.00001696      -0.00474792       0.00135343
Ag       1.17292466       0.95662918       1.06074559       0.00027529       0.03715149      -0.03065604
Na       1.18099597       4.00043676       1.81897007       0.00030535       0.02919329       0.00764951
Ag       3.34342715       0.24334170       8.50613374      -0.00015820      -0.01092843      -0.01592755
Ag       1.17170062       3.38484309       6.12031599      -0.00023998      -0.02515331      -0.01142981
S        1.18063394       5.19370320       4.24279925      -0.00002987      -0.00854897       0.01779842
S        3.35258666       1.90184891       6.35290354      -0.00004597      -0.00756459       0.00845542
S        1.17250080       5.15756397       8.65379447       0.00005735       0.00612815       0.01018006
6
Lattice="2.817597027585329 -0.007012309301455289 -0.8317753057509557 -0.48104866333246765 3.709102311301896 -1.6609830343869774 -0.0288879862082575 0.0166343649237695 5.087219006346345" Properties=species:S:1:pos:R:3:forces:R:3 structure_index=16 total_energy=-29.434452056884766 stress="-0.012069455347955227 0.0036965771578252316 -0.000306609581457451 0.0036964761093258858 -0.026982534676790237 0.011659564450383186 -0.00030616033473052084 0.01165785826742649 -0.006762392353266478" pbc="T T T"
Li       0.18504001       2.56403241       2.45067282      -0.00579624      -0.01183763      -0.00955785
Ni       2.23000612       1.29485837      -0.97111093       0.00811997       0.01810540       0.00911554
O        2.01994537       3.19965688      -1.70112952       0.01009832       0.01037866       0.04357877
O        0.42385068       0.70727266       3.27919926      -0.02098330      -0.02173251      -0.03971819
Ni       1.45559105       0.08834050       1.59938007      -0.00520292      -0.00778219      -0.02007099
O        1.17915969       1.88866509       0.65845363       0.01376434       0.01286829       0.01665258
10
Lattice="4.543226567742196 0.012424391829647344 -0.0026254866787064728 -0.011294534280730057 5.948705091003817 0.008339182486912133 -0.004152116619203809 -0.01040476679901962 5.94995685198651" Properties=species:S:1:pos:R:3:forces:R:3 structure_index=17 total_energy=-67.4649658203125 stress="0.008250843733549118 -0.00015494271065108478 0.00023807247634977102 -0.00015481049194931984 0.0028136642649769783 -1.5706995327491313e-05 0.00023857771884649992 -1.7059659512597136e-05 0.0027416322845965624" pbc="T T T"
Mo       3.18712830       1.35999175       4.83672821       0.01394963       0.00084043      -0.00184345
Ba       0.94806595       1.33070182       1.86424847      -0.04397231      -0.00588968      -0.00040185
Ca       3.36885166       4.33446722       1.87444847       0.00564616       0.00079750      -0.00149183
Ba       0.94138564       4.32726019       4.88665268      -0.04359012      -0.00012464       0.00750791
O        3.55930126       2.68328813       3.51948437       0.01776136      -0.00122464       0.00226510
O        1.35519305       1.35615306       4.83589830      -0.00249267       0.00033931      -0.00060843
O        3.55796132       0.05007112       0.20342455       0.00891460       0.00234884      -0.00139838
O        1.12049012       4.37383716       1.80382503       0.01607877       0.00798853      -0.00884532
O        3.55715806       2.68707342       0.20934671       0.01290042      -0.00462395      -0.00008011
O        3.56184305       0.04361557       3.51513046       0.01480449      -0.00045186       0.00489670
9
Lattice="3.3924419603322287 0.007935016430617602 -1.0935687898933426 -1.727244662062638 5.156650383582254 0.4870784660441111 -0.11777597000081497 0.0001371679210291933 5.44327381824759" Properties=species:S:1:pos:R:3:forces:R:3 structure_index=18 total_energy=-51.548526763916016 stress="0.01641567051410675 0.0012844965094700456 0.01147769670933485 0.0012859785929322243 0.06027382239699364 0.0027936643455177546 0.011479283683001995 0.002791746985167265 0.048317670822143555" pbc="T T T"
O        2.08880440       2.64182613       3.23827684       0.00277387       0.03042283       0.00821129
Co       1.90193441       0.87462746       2.64536201      -0.00389361       0.01896597      -0.01027602
Co       0.47361284       3.34633961       4.04194459       0.00027915      -0.00369315      -0.00654331
O        1.13333915       2.71965167       0.27455931       0.00601468      -0.04255627       0.01663358
O       -0.05732603       4.23277891       2.39994086      -0.01126811       0.01084170      -0.03367513
O        2.44195358      -0.00425071       4.31354500      -0.00341683      -0.01962355      -0.00920250
O       -0.01332249       0.92006772       2.51311953       0.00979791       0.01886654       0.02976887
Co       1.38276288       4.36986994       1.05940881       0.00260760      -0.00229955       0.01022655
Li      -0.56091528       1.87654867       0.82048285      -0.00289455      -0.01092474      -0.00514358
8
Lattice="4.749793181490493 -0.001038169032773437 -0.01371857258251298 0.0010677289737900057 3.9933081635002248 -0.017587208187220395 0.017235446597248044 0.027256847209263416 6.071098881855146" Properties=species:S:1:pos:R:3:forces:R:3 structure_index=19 total_energy=-42.97825622558594 stress="-0.060490503907203674 -0.00091827183496207 0.00020436677732504904 -0.0009186244569718838 0.06533282995223999 0.002281297231093049 0.00020235577540006489 0.002279573353007436 0.0479409396648407" pbc="T T T"
H        0.45476357       3.12362715       2.38584040       0.00116161      -0.00004582      -0.00473082
Sr       2.82725718       1.12635151       2.38330103       0.00213677       0.00072915      -0.00428573
O        4.22831299       3.11949803       1.67323116      -0.00887036       0.00029367       0.00317794
Sr       0.46746902       3.13740639       5.41926620       0.00007723       0.00003488      -0.00527716
H        2.84702666       1.14018020       5.41317774      -0.00005399       0.00033494       0.00404537
O        1.85895998       1.11612923       0.04238048      -0.01940322      -0.00001616       0.00301987
O        1.42462344       3.12672561       3.07415739       0.01703495      -0.00047759      -0.00221443
O        3.81423192       1.13717221       4.71536960       0.00791669      -0.00085315       0.00626540
10